,formula,mp-id,crystal system,density,energy above hull,band gap,efermi,is gap direct,theoretical
4826,Li5TiV3O8,mp-753058,Cm,3.585195387208474,0.08875339607843014,0.0,4.70741731,False,True
4827,Li5V3P8O29,mp-1177077,P1,2.5370535575621,0.037556527648146876,0.0,1.80209783,False,True
4828,Li7Mn4CoO12,mp-1175300,Pm,3.9565094229950795,0.06282129593749808,0.9809000000000001,3.74041859,False,True
4829,Li7Mn4CoO12,mp-1175199,P1,3.9706093083994296,0.03775438968749789,0.9034,3.72656878,False,True
4830,Li9Mn2Co5O16,mp-1100736,C2/m,4.156355453085235,0.1248018428125004,0.0,2.90993563,False,True
4831,Li9Mn2Co5O16,mp-1100729,P2/m,4.198770065520185,0.08515309281250083,0.0,2.69711342,False,True
4832,Li3NbHO2F7,mp-777766,Pbcn,3.055172264718572,0.11812654611606987,2.5571,-0.26466313,False,True
4833,Li3V2(O2F)2,mp-760064,P1,3.2153222911339125,0.0887418887499889,0.6799,1.23961888,False,True
4834,Li7Mn2(CoO4)3,mp-1174874,P2/m,4.115378976482719,0.05480307083333358,0.7559,3.25845441,False,True
4835,Li5(FeO2)4,mp-754802,R3m,4.05532344757741,0.07778711676470618,0.8622000000000001,3.10374986,False,True
4836,Li9Mn2Co5O16,mp-1175968,P1,4.1970213864092285,0.09438332218750034,0.3791000000000002,2.62454223,False,True
4837,Na3Li3Mn2P2(CO7)2,mp-770929,P1,2.759115231605815,0.024137938846150675,3.4453,2.11701816,False,True
4838,Li2AlCoO4,mp-756520,C222_1,3.019339991614611,0.07619086718749912,1.2916999999999998,1.13003293,False,True
4839,Li9Mn2Co5O16,mp-1100660,Cm,4.177014659556609,0.11628857375000035,0.01440000000000019,2.98236769,False,True
4840,Li32Mn3Cr13O48,mp-777959,P1,3.610659893203431,0.02863775520833478,0.9788999999999999,2.17946249,False,True
4841,Li5Mn4O8,mp-1308491,P-1,3.8196421430913974,0.064987453333333,0.0,3.45826957,False,True
4842,Li2VO2F,mp-763177,P1,3.3355585831279657,0.0954329129166629,1.3410000000000002,4.13426831,False,True
4843,Li9Mn2Co5O16,mp-1100642,Cm,4.152637337363617,0.09918629812500068,0.0,3.01199757,False,True
4844,Li5Fe3(OF5)2,mp-1372888,P1,3.2583723388060104,0.7155770961944548,0.9735999999999999,0.34269667,False,True
4845,Li4Fe(BO3)2,mp-1650315,P-1,2.695979981157228,0.01612848288462221,3.9646999999999997,4.91466579,False,True
4846,Li7Mn2(CoO4)3,mp-1175139,P-3m1,4.003831030647119,0.22023433000000026,0.0,2.45108171,False,True
4847,Li24Mn5Cr7O36,mp-768842,P1,3.6299244912537763,0.03535518055555187,1.0553000000000001,2.05314489,False,True
4848,Li9Mn2Co5O16,mp-1176022,P1,4.182079231246065,0.09355985187500071,0.12039999999999962,2.87684757,False,True
4849,Li9Co7O16,mp-1175390,C2/m,4.26411097027581,0.05805446843749973,0.06659999999999999,1.86846266,False,True
4850,Li3Si2BiO7,mp-863427,Pnma,4.1237796732043055,0.09218925205127881,3.2388000000000003,2.62975935,True,True
4851,Li5Fe2P2(CO7)2,mp-768667,P2_1,2.7464613704741625,0.03377658535000627,0.0,1.56311076,False,True
4852,Li2FeO3,mp-1303136,P-1,3.86427874612938,0.0007919124999995475,0.06520000000000015,1.94109424,False,True
4853,Li9Mn2Co5O16,mp-1176308,C2/m,4.212725393108178,0.05823175687500015,1.1111999999999997,3.48657951,False,True
4854,Li3Co2Si3O10,mp-1267688,Cc,2.976542974965283,0.07295528250000682,0.9287999999999998,2.58379985,False,True
4855,Li9Mn2Co5O16,mp-1175903,P1,4.177515693043011,0.06908241812500027,1.4708,2.0926552,False,True
4856,Li17Cr6(Si2O7)6,mp-1178100,P3,2.8542402333857715,0.06009441025612805,0.4342999999999999,1.77920842,False,True
4857,Li4V2SiGeO10,mp-766048,Pccm,3.3570901264955237,0.00440431381943629,1.9795999999999996,2.01194996,True,True
4858,Li8VO6,mp-756255,P-1,2.638009003047724,0.027576510499997653,1.5407999999999997,1.66293374,False,True
4859,Li7Mn2(CoO4)3,mp-1174930,P1,4.0944649293341655,0.07865354124999957,0.41369999999999996,3.00302547,False,True
4860,Li4MnCo2O7,mp-1174433,P-1,4.190652589006785,0.07161381035714154,0.8694999999999999,3.24711435,False,True
4861,Li3Co2Si3O10,mp-758811,Cc,2.913511719037744,0.08439125805556369,0.43800000000000017,2.55295811,False,True
4862,Li6Fe3Sb(PO4)6,mp-757289,P1,3.0909288544006093,0.07388944625624205,1.3198000000000003,2.56213625,False,True
4863,Li7Mn2(CoO4)3,mp-1175085,P1,4.028982856989166,0.10729331500000061,0.36160000000000014,2.908799,False,True
4864,Li4V2Si(PO6)2,mp-777857,P1,2.8996925394067663,0.0817485943650853,1.9381,2.57472588,False,True
4865,Li9Mn7O16,mp-1100581,P2/m,3.9171874336304295,0.026416659843749635,0.9251999999999998,3.71172497,False,True
4866,Li9Mn2Co5O16,mp-1100575,Pm,4.171265334672696,0.11457148281250085,0.0,2.60105907,False,True
4867,Li2VOF3,mp-1293011,P1,3.084074802647297,0.07406045910715697,1.7051,1.36822272,False,True
4868,Li3VCr(P2O7)2,mp-752491,P1,2.810898874000083,0.01837775298007127,0.6295999999999999,3.45919116,False,True
4869,Li7Mn5O12,mp-1666665,P-1,3.8879249044709896,0.03023871666666711,0.8984999999999999,2.79947191,False,True
4870,Li2Fe(Si2O5)3,mp-757460,Cc,2.309174400917988,0.10055648482638624,0.0,0.14271208,False,True
4871,Li5Co3O8,mp-1173996,P2/m,4.062865443696433,0.03994961062499769,0.0,2.47491487,False,True
4872,KLi2FeO3,mp-1178139,Pnma,2.9465001013621843,0.3454231971428623,0.738,0.94319895,False,True
4873,Li2CrO3,mp-1301792,C2,3.5654702137842,0.044002931249999655,0.7612000000000001,2.47317319,False,True
4874,Li24Mn7Cr5O36,mp-770232,P1,3.6614299997535236,0.03186561631944507,1.0812,2.02679213,False,True
4875,Li2FeP2O7,mp-849623,P2_1/c,3.000860409258465,0.012548983055524765,3.9852,2.05553093,True,True
4876,Li3Mn2O5,mp-1173945,C2/m,3.8302703102999427,0.05330401299999998,1.1778,2.57509707,False,True
4877,Li6ZnO4,mp-14495,P4_2/nmc,2.93750058883325,0.0,3.5116,0.13176584,True,True
4878,Li6Ti2O7,mp-772055,C2/c,3.081239370025759,0.01139607433333456,2.5690999999999997,1.4122862,False,True
4879,Li8CrO6,mp-756239,R-3,2.67975240511031,0.035587055499998854,1.0428000000000002,0.96816146,False,True
4880,Li3BiB8O15,mp-777730,P2_1/c,2.7353950082762775,0.06661732277777777,4.0047999999999995,-0.02114091,False,True
4881,Li2MnO3,mp-1173939,C2/m,3.7066537221847287,0.06527465291666701,1.4382000000000001,2.439338,False,True
4882,Li4MnCo2O7,mp-1174757,P1,4.0855868276164795,0.1268427817857134,0.0,2.71870652,False,True
4883,Li4Fe2Si4O13,mp-759501,Pna2_1,3.1039902883674784,0.0444694473913092,2.7804000000000006,3.13973457,False,True
4884,Li7V6(OF)12,mp-775890,P1,3.1208277786719067,0.04821652810809418,0.29780000000000006,0.8264761,False,True
4885,Li3CrPCO7,mp-1177696,P1,2.692662341943599,0.07861286944711576,0.0,4.36023862,False,True
4886,Li3Al2FeO6,mp-770727,C2/m,3.596720231885614,0.020887583750000438,2.6281000000000003,3.7577805,False,True
4887,Li7Co5O12,mp-1174229,P-1,4.2788687671605965,0.06428116291666441,0.0,2.61730766,False,True
4888,Li9Mn2Co5O16,mp-1175803,P1,4.186850138731726,0.07979345468750054,0.5085000000000002,3.0250691,False,True
4889,Li3CuSbO5,mp-767395,P1,4.766096961099461,0.020955898499996017,0.0,4.2784857,False,True
4890,Li7Mn4CoO12,mp-1175194,P1,3.9601533864409095,0.04560919760416571,0.8353999999999999,3.63238563,False,True
4891,Li7Mn2(CoO4)3,mp-1175165,Cm,4.031924448709145,0.1858177812500008,0.0,2.85146737,False,True
4892,Li5Mn3O8,mp-1284734,P1,3.803525920984483,0.0249671190624996,1.1886999999999999,2.66778392,False,True
4893,Li9Co7O16,mp-1175444,P-1,4.293223000966274,0.061867038437499744,0.7587000000000002,2.17547389,False,True
4894,NaLi5Fe2P2(CO7)2,mp-772274,P2_1,2.831948208218208,0.04120263846153893,4.0342,1.88376214,True,True
4895,Li2V(PO4)2,mp-26673,P-3,2.8169392997275047,0.038697859423066916,0.0,1.89857871,False,True
4896,Li12Mn3VP4(CO7)4,mp-766509,Pm,2.7107106256224776,0.059866221105771444,2.6856,3.09608384,False,True
4897,Li7Fe3(WO8)2,mp-771171,Cm,4.756765059327729,0.08053747566072023,0.0,1.09929648,False,True
4898,Li9Mn2Co5O16,mp-1176260,P2,4.194911367398204,0.11516481687500058,0.24409999999999998,2.93481211,False,True
4899,Li9Mn2Co5O16,mp-1176024,P1,4.185833721590885,0.1036786043750002,0.11580000000000013,2.74051742,False,True
4900,Li4Sn2P4H3O16,mp-777312,P1,3.052379654173232,0.06561824370689262,0.0,3.06706049,False,True
4901,Li24Mn7Cr5O36,mp-768724,P1,3.6631158127986785,0.03205068562500024,1.1001999999999998,1.98342463,False,True
4902,Li6V3P8O29,mp-757632,P1,2.589324687824625,0.024056407563398885,1.3968,0.63549459,False,True
4903,Li24Ti11CrO36,mp-779361,P1,3.349972714656998,0.003005990243057255,1.5560999999999998,2.07580571,False,True
4904,Li2CoP2O7,mp-756993,P-42_1m,2.753738910191352,0.06814568909720276,3.2618,1.0554915,False,True
4905,Li6V3P8O29,mp-757536,P1,2.587214672838343,0.022863790498181658,1.0446,0.85622999,False,True
4906,Li4MnCo2O7,mp-1371658,P1,4.178657279163959,1.8262005589285701,0.0,3.20526277,False,True
4907,Li2V(Si2O5)3,mp-757778,P-1,2.5936588991020137,0.06651380312500166,2.2039999999999997,1.43780195,False,True
4908,Li24Ti7Cr5O36,mp-771282,P1,3.4355217171339163,0.013221906215275858,0.8952999999999998,3.30667117,False,True
4909,Li4Mn3OF11,mp-753461,P1,3.279303938461339,0.05747588690789751,0.5164000000000001,0.09615211,False,True
4910,Li7Mn2(CoO4)3,mp-1175103,Cm,4.098855238664904,0.10959292458333447,0.0,3.11249959,False,True
4911,Li2CoPO4F,mp-770624,Pbcn,3.2798089723015247,0.04991024486111062,2.6473000000000004,1.61268057,True,True
4912,Li3P3(WO6)2,mp-758687,P2_1/c,4.563706069963208,0.046232862499997474,3.9071000000000002,2.26291087,False,True
4913,Li4MnCo2O7,mp-1174491,P-1,4.110571068196319,0.13894696178571309,0.12550000000000017,2.7411008,False,True
4914,Li35(FeO4)8,mp-850218,P1,2.483034701039969,0.047865060733336406,0.06539999999999999,0.06595291,False,True
4915,Li9Mn2Co5O16,mp-1175553,P-1,4.205107336503066,0.08308487375000073,0.35219999999999985,2.9695913,True,True
4916,Li4Cu(PO3)6,mp-759341,C2/c,2.7753925163179436,0.07093909784483454,0.33610000000000007,1.66155295,False,True
4917,Li4Cr2(PO4)3,mp-760100,P2_1/c,2.8526764467707606,0.04204268869048633,0.8370000000000002,3.17892877,False,True
4918,Li6Ge2O7,mp-27968,P2_1/c,3.141919070063394,0.003222822999997099,3.7409999999999997,-0.03257351,True,True
4919,Li5Mn2CoO8,mp-1301686,P-1,3.929970792141913,0.06244662937500056,0.4234,2.67512949,False,True
4920,Li7Br3O2,mp-28592,I4/mmm,3.0832511953488626,0.02552370083333333,4.764799999999999,0.76405082,False,True
4921,Li3V2(O2F)2,mp-1567267,P2_1/m,3.2533398135858778,0.06109798124998811,1.1533,1.68403708,False,True
4922,Li6V3P8O29,mp-1176947,P-1,2.592165783444538,0.027325454519920633,1.4889999999999999,0.60460117,True,True
4923,Li3Mn2(SiO4)2,mp-1312705,P1,2.8850973671859714,0.08962513769443348,0.35960000000000014,1.60875265,False,True
4924,Li6Mn3CoO10,mp-1174304,Cm,3.9370145564078713,0.06520892537499723,1.0181,3.61534034,False,True
4925,Li7Mn2(CoO4)3,mp-1175038,P1,4.0519188999615725,0.10767578624999974,0.0,2.67465073,False,True
4926,Li7Mn2(CoO4)3,mp-1174923,P1,4.068654196682756,0.06474649666666732,0.5959000000000003,2.80903068,False,True
4927,Li3Cr2(PO4)3,mp-26869,C2/c,3.2544094989795243,0.03770682125000313,2.2633999999999994,2.40751677,False,True
4928,Li4Mn3O7,mp-1174299,C2/m,3.8896974268224285,0.044723666428571285,1.1980999999999997,3.8527636,False,True
4929,Li7Mn2(CoO4)3,mp-1175046,P1,4.019064899963598,0.11030151416666722,0.0,2.62374548,False,True
4930,Li8SbO3,mp-1102716,Pm-3m,2.578148465786428,0.41298208347222154,0.0,1.6454749,False,True
4931,Li2Ni(PO3)4,mp-26195,Pnma,2.900580558499151,0.013522848903511075,4.5469,5.62718473,False,True
4932,Li6VCr3(PO4)6,mp-1176888,P1,2.929573912737323,0.0436904416250119,2.2569,1.96238505,False,True
4933,Li4Ni2C4SO16,mp-778481,Fddd,2.635815432728547,0.09788217995370374,0.0,0.10726106,False,True
4934,Li3LaNiO4,mp-768238,P-1,4.58724004967011,0.07948740284722255,2.2762000000000002,6.02486293,False,True
4935,Li9Mn7O16,mp-1100482,P2/m,3.906905891517107,0.03838679453124971,1.0428000000000002,2.6970882,False,True
4936,Li2CoP2O7,mp-1575669,P1,2.947235718312056,0.017526677013870007,3.2056999999999998,1.21946616,False,True
4937,Li4Cu2C4SO16,mp-776330,Fddd,2.8059600844762476,0.08660916529321039,0.0,0.75925514,False,True
4938,Li3Mn2(PO4)3,mp-26601,R-3,2.8971749086482586,0.03754701225004897,0.0,1.51983831,False,True
4939,Li4Mn2P4H3O16,mp-771909,P1,2.778026599529327,0.030728530474124938,0.5505,1.68478925,False,True
4940,Li9Co7O16,mp-1175436,C2/m,4.268247403275234,0.061067495625000134,0.06669999999999998,1.88113097,True,True
4941,Li2NiO2,mp-19183,Immm,3.5821570633090043,0.0931350449999977,0.6210999999999998,3.2692452,False,True
4942,Li7V3P8O29,mp-757373,P1,2.6083531800999897,0.022975641201238517,1.0528,1.26582439,False,True
4943,Li9Mn2Co5O16,mp-1100753,C2/m,4.120975857018107,0.1908149265625001,0.0,2.32571361,False,True
4944,Li2FeSiO5,mp-753936,P4/nmm,3.17782267242817,0.09270091509258815,0.0,1.46105263,False,True
4945,Li6Mn2O5F2,mp-766030,P1,3.070663387016692,0.07605747866667212,0.8142,1.78028988,False,True
4946,Li6V3P8O29,mp-772081,P1,2.5901668933391444,0.027544977454703634,1.3295,0.78877482,True,True
4947,Li3Sn(PO4)2,mp-758002,P3,3.3875695601838793,0.0552397908333333,0.0,3.94380771,False,True
4948,Li4MoO5,mp-675020,I4,3.862353277307964,0.0,2.6180000000000003,1.49338749,False,True
4949,Li2CoO2F,mp-764063,P-3m1,4.1957793615854815,0.002338541666667915,0.47619999999999996,3.03978444,True,True
4950,Li3Fe(PO4)2,mp-758186,Pc,2.588883772422119,0.02996730053571195,1.0627,0.59055105,False,True
4951,Li7Mn2(CoO4)3,mp-1175061,P1,4.029721330548656,0.12054116625000066,0.09200000000000008,2.7547458,False,True
4952,Li7Mn2(CoO4)3,mp-1174985,C2,4.0768866731950535,0.08128025958333396,0.8408000000000002,2.34800463,False,True
4953,Li9Mn2Co5O16,mp-1100584,Pm,4.10410228088844,0.13026550593750041,0.0,2.71651961,False,True
4954,Li5Mn(CoO4)2,mp-1174060,C2/m,3.9060107883378707,0.1201787015624971,0.0,2.16976045,False,True
4955,Li3NiPCO7,mp-861294,P2_1/c,2.968574947867469,0.07927126519231198,3.2843,1.48282495,False,True
4956,Li3P2WO8,mp-758018,C2/m,4.3898081743153545,0.05218060901785204,4.1832,2.94034803,False,True
4957,Li3Bi(PO4)2,mp-758731,P1,3.967837686983846,0.08586236142857118,3.7454,1.58283702,False,True
4958,Li4CoO4,mp-771149,Pm,2.5092421821058113,0.10430527416666724,0.0,0.24981682,False,True
4959,KLi6BiO6,mp-1181529,C2/m,2.4756267924671005,0.276321383571438,1.2849,-1.10758435,False,True
4960,Li9Mn2Co5O16,mp-1175721,P-1,4.194198818262922,0.09581767250000084,0.0,3.02690253,False,True
4961,Li10Ti4O13,mp-772260,P-1,2.4132120018693994,0.08404757999999912,3.9595,-0.1471307,False,True
4962,Li9Fe4(BO3)8,mp-1176790,P1,2.6740660988751213,0.062271583377776274,0.0,0.31741984,False,True
4963,Li4MnCo2O7,mp-1174464,P-1,4.094186979112778,0.12615373499999816,0.11830000000000007,2.59718592,False,True
4964,Li6V3P8O29,mp-1176920,P1,2.5778328539614446,0.023763089411224847,1.4697000000000002,0.54454849,False,True
4965,Li3Cr(PO4)2,mp-757317,P2_1/m,2.869987163063295,0.07671771624999568,1.3436999999999997,2.98205936,False,True
4966,Li5Mn(CoO4)2,mp-1174300,R3m,3.7420276397319365,0.22383725281249678,0.0,1.7952784,False,True
4967,Li9Mn2Co5O16,mp-1175672,C2,4.241896905874364,0.06532457343750053,0.9925000000000002,2.30998423,False,True
4968,Li6MnV3(PO4)6,mp-1176946,P-1,2.9344771739829167,0.05256572064060805,0.5392999999999999,2.13621644,False,True
4969,Li4V3P8O29,mp-759494,Cc,2.5355393925611254,0.05019139844696863,1.0163,0.2861933,False,True
4970,Li3Fe2(PO4)3,mp-705329,Cc,2.928239494724712,0.02764664800000638,2.1672000000000002,1.16950119,True,True
4971,Li7Mn2(CoO4)3,mp-1174869,P-1,4.087928092634247,0.07260140875000065,0.4664999999999999,3.02711894,False,True
4972,Li2CoO3,mp-773514,Pnnm,3.0654798119253726,0.14809881916666612,0.8906000000000001,-0.11594815,True,True
4973,Li5MnO3F,mp-1308806,Cm,2.472704991836924,0.07968576783333248,1.3229000000000002,2.10163437,False,True
4974,Li2Ge(S2O7)3,mp-1080241,R-3,2.4637312936237,0.0,3.7676000000000003,-0.44585494,True,True
4975,Li2FeSiCO7,mp-772072,P2_1/m,2.6574772803600215,0.09881456796874666,0.0,0.45637173,False,True
4976,Li3MnCoO5,mp-1174194,Cm,3.9184896029974,0.15413797799998985,0.0,2.83425947,False,True
4977,Li4V3P8O29,mp-851334,Cc,2.5007714828928505,0.04038917003787734,1.0766,0.18800707,False,True
4978,Li4Mn3O7,mp-1174244,P-1,3.9154280283114793,0.025868720357142827,1.0555999999999996,3.80362682,False,True
4979,Li4Co3O7,mp-1174197,P-1,4.225506622452442,0.06424010535713975,0.49150000000000027,2.78542127,False,True
4980,Li4MnO3,mp-755396,Cc,2.5671558987579264,0.07579478104166615,0.9717999999999998,1.10954173,True,True
4981,Li5V3P8O29,mp-1177217,P1,2.5361433936502658,0.0317525450925924,1.2186,0.30016213,False,True
4982,Li9Mn7O16,mp-1100535,P-1,3.8621366554594987,0.034891619843749666,0.7002999999999999,3.42422986,False,True
4983,Li2PbO3,mp-22450,C2/c,7.013112294262959,0.0,1.0872000000000002,2.79048846,False,True
4984,Li2AlGaSi2(H2O5)2,mp-1222936,P2_1,2.464598636519522,0.014050929250000621,4.349,-0.04196265,False,True
4985,Li4CoO4,mp-776004,Pm,2.50809799368407,0.09594529277777841,0.88,-0.22367324,False,True
4986,Li6MnV3(PO4)6,mp-1176955,C2/c,3.3021373137754204,0.06271024876560993,0.4537,3.40255789,False,True
4987,Li9Mn2Co5O16,mp-1100666,Cm,4.1408988411575836,0.10457557093750047,0.0,3.13308787,False,True
4988,Li3V2(OF)3,mp-765357,R3m,3.091082992274932,0.08483036829545476,0.4393,1.64741084,False,True
4989,CsNa3Li12(GeO4)4,mp-17125,I4/m,3.278569512881597,0.0005680809722212743,3.7822999999999998,0.1636612,False,True
4990,Li2CoSiO4,mp-757985,P2_1/c,3.1332560996647945,0.020187358749993223,2.6208,1.73179969,False,True
4991,Li7Mn2(CoO4)3,mp-1174511,P-1,4.06198124186604,0.07755521375000018,0.5781000000000001,3.14756233,False,True
4992,Li2VBO4,mp-768868,Pc,3.0141562506078894,0.09057225906249933,2.1976999999999998,2.83214798,False,True
4993,Li9Mn2Co5O16,mp-1176044,P1,4.184727043461813,0.0810646056250004,0.2219000000000002,2.82870647,False,True
4994,Li9Mn2Co5O16,mp-1175395,C2/m,4.193138404376038,0.06202585406250005,1.3100999999999998,2.08322833,False,True
4995,Li9Mn2Co5O16,mp-1175851,P1,4.232107934688818,0.06441092437500018,0.9628999999999999,2.43451783,False,True
4996,Li7SbO6,mp-27453,R3,3.283949545081623,0.02252604000000069,3.4971999999999994,1.36570586,False,True
4997,Li6Co3P8O29,mp-776308,P1,2.7257033487462494,0.05898348654437946,0.07390000000000002,0.3756734,False,True
4998,Li9Mn2Co5O16,mp-1176285,C2/m,4.1717443843530395,0.06422719687500056,1.2746999999999997,2.31092462,False,True
4999,NaLi5Fe2P2(CO7)2,mp-1101665,P1,2.7992231668244463,0.041953479615384204,3.1758,1.61661567,False,True
5000,Li3CoPCO7,mp-766707,P2_1/c,2.9394732205438245,0.0652690223076915,2.8343999999999996,1.40613243,True,True
5001,Li6Mn3CoO10,mp-1174791,P1,3.978741862425838,0.045170733374996885,0.9630999999999998,2.80061696,False,True
5002,Li9Mn2Co5O16,mp-1175917,P1,4.230169548635659,0.09423323937500072,0.0,3.26968992,False,True
5003,Li4CoO3,mp-755593,Cc,2.720751239288863,0.036272269648438105,2.4108,0.82888939,False,True
5004,Li3Fe2P2(CO7)2,mp-768623,P-1,2.638727555691242,0.04223627054347734,0.0,0.09318003,False,True
5005,Li3NiPCO7,mp-756659,P2_1,2.9546394360117096,0.07256463192308082,2.9966,1.5909772,False,True
5006,Li3FePO5,mp-765579,Pna2_1,2.8482656006559637,0.06027236250000012,2.9765,2.16262186,True,True
5007,Li9Mn7O16,mp-1100489,C2/m,3.9300376503826002,0.05093992296874994,0.0,3.11287057,False,True
5008,Li2MnOF3,mp-753588,C2/m,3.093570144660588,0.080840879107142,0.5119,0.19076227,False,True
5009,Li7Mn2(CoO4)3,mp-1174999,P1,4.137461942252845,0.18125629583333325,0.42289999999999983,2.55984199,False,True
5010,Li5Mn2P2(CO7)2,mp-755033,P1,2.699930134370192,0.03579409529999911,0.0,1.55435597,False,True
5011,Li4V3P8O29,mp-1177352,P1,2.540111406264166,0.05529015333333209,0.2895,0.53850863,False,True
5012,Li2HgO2,mp-1206880,I4/mmm,7.094680294360938,0.0,1.1767,2.15678336,False,True
5013,Li2Sn(PO3)5,mp-757947,P2_1/m,2.6782964269095597,0.06468448509057989,0.11250000000000027,2.74902871,False,True
5014,Li6MnV3(PO4)6,mp-1176982,P1,2.9024506915506603,0.018186488265608425,0.34109999999999996,1.89033257,False,True
5015,Li5(CoO3)2,mp-753251,P1,2.831547513188353,0.11083147499999502,0.9501,0.08312,False,True
5016,Li2VO2F,mp-763212,P1,3.3307675323221204,0.1052089529166631,0.6738999999999997,2.99554549,False,True
5017,Li2MnP2O7,mp-540223,P2_1/c,2.8290837642188964,0.021640434999999236,4.2365,1.59576729,True,True