,formula,mp-id,crystal system,density,energy above hull,band gap,efermi,is gap direct,theoretical
5596,Li32Ti13Cr3O48,mp-777110,P1,3.3773490037696403,0.00688044127604126,1.4038,2.03503217,False,True
5597,Li9Mn2Co5O16,mp-1175794,P1,4.257465616185175,0.051533865312500815,1.6401000000000003,2.1809268,False,True
5598,Li4AlCr3O8,mp-768808,P-1,3.913258308829516,0.013032386406242935,2.9463999999999997,6.50778157,False,True
5599,Li4MnCo2O7,mp-1174585,P1,4.215448900891392,0.05623427071428466,0.5899999999999999,3.13931429,False,True
5600,Li3FeP2O9,mp-26902,P1,2.6634632317533984,0.09836140158333162,0.027900000000000036,0.55108162,False,True
5601,Li7Mn2(CoO4)3,mp-1174939,P1,4.119846820200953,0.06987735666666683,1.3271000000000002,3.56193094,False,True
5602,Li3Fe(PO4)2,mp-757629,Pca2_1,3.1401742410883697,0.08599107357142621,1.9917999999999996,3.06332418,False,True
5603,Li2CoSiO4,mp-753732,Pc,3.201994317682924,0.0,2.6410000000000005,2.17916453,False,True
5604,Li2CrP2O7,mp-26771,C2/m,2.7866185018263683,0.028816361875025898,3.2552000000000003,1.56782319,False,True
5605,Li2MoO3,mp-694855,P-1,4.905294434755955,0.01307551749999547,1.3636,3.53464081,False,True
5606,Li5Mn2P2(CO7)2,mp-768854,P2_1/m,2.7321221587533153,0.04712503089999931,0.0,2.5532537,False,True
5607,Li6MnV3(PO4)6,mp-1177110,P1,2.926937365239183,0.05479498901560831,0.46579999999999977,2.09326781,False,True
5608,Li7Mn5O12,mp-1346728,P-1,3.8873065137237917,2.0225828197916673,0.16349999999999998,3.79433017,False,True
5609,Li4Cu2Si3O10,mp-757514,C2/c,3.2348254479894014,0.07157540605263968,0.0,2.71725855,False,True
5610,Li7Mn2(CoO4)3,mp-1174512,P-1,4.087468791515301,0.07731252041666625,1.2626,3.46954278,False,True
5611,Li9Mn2Co5O16,mp-1176140,P1,4.158707183977941,0.11220491750000061,0.0,2.60324282,False,True
5612,Li2MnO2F,mp-759509,C2/c,3.208480287903715,0.04242999624999655,2.2011000000000003,0.75177862,False,True
5613,Li8NiO5F,mp-760066,P1,2.6895386359774256,0.04622638522222111,1.1136,1.00096572,False,True
5614,Li32Mn3Cr13O48,mp-777576,P1,3.5990824012917098,0.02824268781250172,0.9846999999999997,2.08582566,False,True
5615,Li6Cr(BO3)3,mp-772644,P2_1/c,2.448578396776745,0.07966985100876833,2.3399,0.8020252,True,True
5616,Li3VPCO7,mp-766599,P1,2.689838668178336,0.08544827596154025,2.5852000000000004,3.27355689,False,True
5617,Li3Mn2OF5,mp-753529,F222,3.2809191500278487,0.09856142636363341,1.9747,1.66171332,False,True
5618,Li7Mn2(CoO4)3,mp-1175081,P2,4.158324654631161,0.060139823750000154,0.49639999999999995,2.98398616,True,True
5619,Li5MnP2(O4F)2,mp-758807,P3,2.7850223598767654,0.041251328425924605,1.6278000000000001,0.82359439,True,True
5620,Li6V3P8O29,mp-757631,P1,2.5917680859812986,0.023882704193833426,0.9566000000000001,0.85108493,False,True
5621,Li5Mn2(PO4)3,mp-768628,P-1,2.79849741260195,0.09072891409090289,3.6014000000000004,1.6692648,False,True
5622,Li9Mn2Co5O16,mp-1100717,P2/m,4.14750277818181,0.13234192406250056,0.0,2.40925229,False,True
5623,Li13Mg(Ni6O13)2,mp-769522,P-1,4.646302467038601,0.009155799316230784,0.0,3.54777905,False,True
5624,Li3Y2(BO3)3,mp-1211286,P2_1/c,3.684683445883209,0.03911118132354918,4.7924,1.99800286,True,True
5625,Li5Mn2P2(CO7)2,mp-768935,P-1,2.721989195016491,0.04504647589999866,0.0,1.88772997,False,True
5626,Li4V2(PO4)3,mp-777185,P-1,2.8344972300773925,0.020691915714292186,0.5211999999999999,3.37115869,False,True
5627,Li3Mn2(PO4)3,mp-860928,C2/c,2.7339554559186805,0.06197403162504944,1.3973,0.72004805,False,True
5628,Li3Ti2(PO4)3,mp-758310,C2,2.826075260450351,0.07723784348332785,0.0,4.47714682,False,True
5629,Li2Co(CO3)2,mp-767036,Pc,2.621568917196423,0.047895850227275716,2.2155,0.68485648,False,True
5630,Li5MnCr3O8,mp-753261,R-3m,3.9012043924701176,0.0813183248039211,0.9953000000000003,4.05516753,False,True
5631,Li7V3P8O29,mp-1176878,P1,2.6086320463851913,0.033555001626771386,0.17720000000000002,1.86849392,False,True
5632,Li9Mn7O16,mp-1100554,P-1,3.918106406772512,0.026508679843749938,0.9744000000000002,3.71470875,False,True
5633,Li2FeP2O7,mp-26789,C2/c,2.7787817564784953,0.03531863055552442,4.103,1.08952469,False,True
5634,Li4Co2OF7,mp-1308000,Cc,3.224601322034266,0.035562361428571165,1.3944,-0.43011959,False,True
5635,Li2FePCO7,mp-768491,P-1,2.738934014563229,0.01081856447918561,2.2695999999999996,0.95560876,False,True
5636,Li9Mn2Co5O16,mp-1100621,Cm,4.136738297254469,0.11416663937500005,0.3330000000000002,2.52750483,False,True
5637,Li3Bi2(PO4)3,mp-684042,C2/c,4.325050594290229,0.04726306625000021,4.0258,1.49319664,True,True
5638,Li5Zn4(BO3)4,mp-756306,P1,3.3750297098258337,0.10071801630001431,0.0,4.03055021,False,True
5639,Li7Mn2(CoO4)3,mp-1175071,Cm,3.916530549802783,0.19897177916666653,0.0,1.8133843,False,True
5640,Li9Mn7O16,mp-1100505,C2/m,3.93607383466527,0.027292079531250124,0.9934000000000003,2.78732216,False,True
5641,Li9Mn2Co5O16,mp-1176223,P1,4.152228011995484,0.10532351843750032,0.24520000000000008,2.67954841,False,True
5642,K3Li3TeO6,mp-560739,Pnma,3.3922359015472963,0.0,2.5626,1.50600075,True,True
5643,Li6Mn3V(PO4)6,mp-1177037,P1,2.955143663996865,0.01523494150000726,0.5279999999999998,1.76184904,True,True
5644,Li2NbP4O13,mp-673156,P-1,2.6804671137646148,0.06180496904999533,3.1611000000000002,2.74856807,False,True
5645,Li3MnV(PO4)3,mp-1177590,P1,2.8768104232057152,0.050233890187497465,0.7554999999999998,1.79950413,False,True
5646,Li4MnCo2O7,mp-1371062,P-1,4.1313765573724845,2.0803029974999987,0.0,3.49304248,False,True
5647,Li6TeO6,mp-7941,R-3,3.5660800955805856,0.0,2.5820999999999996,0.99889412,True,True
5648,Li3MnV(PO4)3,mp-777828,Cc,2.8758252422255977,0.05270382618749725,0.2985,1.83739605,False,True
5649,Li3MnV(PO4)3,mp-1177564,P1,3.012858201690921,0.0313024116874967,0.5853000000000002,1.92190841,False,True
5650,Li5Mn2CoO8,mp-1174400,Pm,3.7886065220657934,0.12223640375000056,0.1109,2.90281441,False,True
5651,Li2Ni(PO3)5,mp-540011,Pc,2.6154627595070115,0.04771977225543722,0.0,-0.04299778,False,True
5652,Li4FeO3F,mp-756232,Cc,2.515612612284818,0.10252553208332849,2.1624,0.1826416,True,True
5653,Li7V3P8O29,mp-1176850,P1,2.6007193437751632,0.02019343577570787,0.6026000000000002,1.45799609,False,True
5654,Li2BiO3,mp-753162,Cmmm,6.139594113697422,0.0186343468749941,0.0,3.25601178,False,True
5655,Li10Mn5Fe3O16,mp-759959,P1,4.0372016927950405,0.06560947088235292,0.28269999999999973,3.97741779,False,True
5656,Li3MnV(PO4)3,mp-1177603,P1,2.9332642263827893,0.06743081106249704,0.18159999999999998,2.09167089,False,True
5657,Li24Mn11CrO36,mp-770619,C2,3.7325949727477488,0.007881623680567884,1.5105,1.89041123,False,True
5658,Li4V2(PO4)3,mp-761150,C2/c,2.7881402932629045,0.06248706380953006,0.0,4.09427221,False,True
5659,Li9Mn2Co5O16,mp-1100601,Pm,4.144983332939525,0.2003263384375007,0.0,2.69937834,False,True
5660,Li2NbO3,mp-781626,C2/c,4.4633698376928015,0.09995097145833487,0.0,4.77611602,False,True
5661,Li3Cr(PO4)2,mp-774182,R3,2.8668974306992294,0.06634220505952015,2.7229,1.61329225,False,True
5662,Li8CoO6,mp-27920,P6_3cm,2.5390754553726245,0.008495306333331065,1.0757999999999999,0.0287317,False,True
5663,Li2TiO3,mp-36864,C2/c,3.5457775053831306,0.010792145833340427,2.4033999999999995,2.22112787,False,True
5664,Li9Mn2Co5O16,mp-1175905,P1,4.199483529649345,0.07987467937500004,0.4274,3.36859969,False,True
5665,Li5V3P8O29,mp-759626,P1,2.555313355664184,0.03586405409259186,0.7694,0.66750736,False,True
5666,Li3FePCO7,mp-754968,P-1,2.7398400106691576,0.04615291788461562,3.87,1.5412034,False,True
5667,Li3Fe2(PO4)3,mp-25993,P2_1/c,2.999970411022088,0.0,2.6074,1.03176163,True,True
5668,Li2MnO2,mp-1280924,C2/m,2.997562505412346,0.05631427533333344,0.0,2.30019624,False,True
5669,Li10Si2NiO10,mp-767066,C2/m,2.428728767126677,0.054348121195664234,2.3662,0.76273401,False,True
5670,Na2Li2CoO4,mp-861533,P1,2.7710720631177588,0.055879007222225496,0.6293,0.71961728,False,True
5671,Li5Co3O8,mp-1174123,P-1,4.0116833884318295,0.09658842687499725,0.28420000000000023,2.10033974,False,True
5672,Li2FeP2O7,mp-26255,P2_1/c,2.897536396621497,0.01943289430552486,3.8745000000000003,1.66947731,False,True
5673,Li7Co5O12,mp-1174292,P-1,4.263600768812722,0.05993361958333043,0.5903,2.49651334,False,True
5674,Li7Mn5O12,mp-1175332,P-1,3.877820144778788,0.03974245979166646,0.0,3.09154165,False,True
5675,Li9Mn2Co5O16,mp-1175699,P-1,4.139388723852965,0.12501925062500074,0.17690000000000028,2.71260041,False,True
5676,Li4Cu(PO4)2,mp-752943,P-1,3.1034235556443357,0.06733455733333393,0.681,2.68724427,False,True
5677,Li2VO2F,mp-763099,Immm,3.4248269140458474,0.10682042916666301,0.9325000000000001,3.03257359,False,True
5678,Li6V3P8O29,mp-1177009,P1,2.5781251941058274,0.023481525715573603,1.5143000000000002,0.55912599,False,True
5679,Li5(CuO2)3,mp-760590,P1,3.7195533200740254,0.018958597589286086,0.0,2.0875098,False,True
5680,Li9Mn2Co5O16,mp-1176286,C2/m,4.165339376203057,0.06556938406250001,1.4863,2.09569456,False,True
5681,Li6Fe3P8O29,mp-26221,P1,2.560159313224056,0.04830354007700066,0.0,-0.16342873,False,True
5682,Li5TlO4,mp-27483,P4_2/nmc,4.931940548670556,0.0,1.6600000000000001,0.9660229,True,True
5683,Li3VO3F2,mp-799262,P1,2.540682169631169,2.174496793055555,0.0,2.80565049,False,True
5684,Li6MnV3(PO4)6,mp-775157,R-3c,3.29139887590701,0.0686951685156103,0.0,3.54346865,False,True
5685,Li4MnCo2O7,mp-1174676,P1,4.149977938052227,0.10568021571428421,0.27170000000000005,2.70083005,False,True
5686,Li4MnCo2O7,mp-1174529,Cm,3.987283892996765,0.191112282499998,0.0,2.03668579,False,True
5687,Li2VO2F,mp-763193,P1,3.3299229202186975,0.09415901116666259,0.7241,3.28675077,False,True
5688,Li3Co2(CO3)4,mp-753166,P1,2.561370276100123,0.062192314503974444,0.9728,-0.0885209,False,True
5689,Li3FeO4,mp-764163,Amm2,3.3346524014691896,0.05758123000000026,0.0,1.33307767,False,True
5690,Li4MnCo2O7,mp-1174743,P1,4.136087638365134,0.11351883071428492,0.0,2.59488715,False,True
5691,Li9Mn2Co5O16,mp-1100698,P2/m,4.1486485934047375,0.1755907446875007,1.1774999999999998,2.29156094,False,True
5692,Li2CrO3,mp-770628,C2/c,3.568313956124038,0.021704144583332585,0.0,3.22502922,False,True
5693,Li4V3O8,mp-1308066,Cc,3.362063452847167,0.06860444125000686,1.6730999999999998,1.98602918,False,True
5694,Li2VOF4,mp-1177748,C2/c,3.0193229686796883,0.011320176249999925,1.8189,-0.61681385,False,True
5695,Li9Mn2Co5O16,mp-1176164,P1,4.137944452502513,0.12372099593750008,0.0,2.75529105,False,True
5696,Li6La3(SbO6)2,mp-1212139,Ia-3,5.325680343543135,0.08770052946739071,0.19280000000000008,6.91393263,True,True
5697,Li4Fe(BO3)2,mp-1650136,P2_1/c,2.6990624191832273,0.016264473461545137,3.7584999999999997,0.98782934,False,True
5698,Li5Mn2CoO8,mp-1174355,P2/m,3.8844642728333674,0.09929980750000045,0.0,2.34682127,False,True
5699,Li6V3Ni(PO4)6,mp-769109,P1,2.9668476462334072,0.043142328265611596,0.9196,2.32325464,False,True
5700,Li2Fe(Si2O5)2,mp-758911,P2_1/c,2.416679936050266,0.06168006264705905,3.5622000000000007,1.36907502,False,True
5701,Li9Mn2Co5O16,mp-1176040,P1,4.229256241606801,0.09542219625000037,0.0,2.67406782,False,True
5702,Li7Mo4P9O32,mp-27067,P-42_1c,3.1383389197540854,0.04333002432692101,3.7758,2.48705988,False,True
5703,Li9Co7O16,mp-1175418,C2/m,4.4523480388031835,0.03433381531250035,0.6335000000000002,2.62462547,False,True
5704,Li6MnV3(PO4)6,mp-764886,P1,3.1453682562435814,0.05340151114060987,0.33610000000000007,2.98234464,False,True
5705,Li7Co5O12,mp-1174366,P-1,4.199079969815414,0.05940430291666399,0.0,2.01045018,False,True
5706,Li2Ti(PO3)5,mp-684108,P2_1/m,2.485636769648119,0.05347919592029271,3.159,3.73776861,False,True
5707,Li9Mn2Co5O16,mp-1100600,Pm,4.163038389028947,0.12109534906250019,0.0,3.27650429,False,True
5708,Li9Mn2Co5O16,mp-1100742,C2/m,4.126120616078911,0.2559946940625002,0.0,2.22609396,False,True
5709,Li3Fe2P4HO14,mp-1638873,P-1,2.861180147716813,0.0394114844444422,4.2043,1.49947249,True,True
5710,Li6MnV3(PO4)6,mp-764856,P1,3.141160755622716,0.05376645364060906,0.27939999999999987,2.66069132,False,True
5711,Li2CoO3,mp-1314570,P-1,3.912374440123691,0.029958395000000415,0.7738,1.75644178,False,True
5712,Li7Mn2(CoO4)3,mp-1175227,P3m1,3.9347276191055087,0.25143775708333393,0.0,2.89387299,False,True
5713,Li3CrPCO7,mp-1177693,P1,2.700004031223504,0.0848695111778861,1.9515999999999996,2.78617234,True,True
5714,Li2FeOF3,mp-850401,P4_1,3.10374789653383,0.05256204003967202,1.9609,0.17791314,False,True
5715,Li9Mn2Co5O16,mp-1100750,C2/m,4.100761711586708,0.12429912593750014,0.0,2.7411916,False,True
5716,Li7Mn2(CoO4)3,mp-1175044,P1,4.012964970338841,0.1324358633333338,0.0,2.66431784,False,True
5717,Li3Fe2P5O16,mp-31885,P2/c,2.790137805510068,0.014971874551277686,3.5993,1.90550392,False,True
5718,Li2FeSi3O8,mp-867661,P1,2.4815795334273183,0.0758205289285705,3.4226,4.90453083,False,True
5719,Li9Mn2Co5O16,mp-1176019,P1,4.194393353616886,0.10352966656250029,0.0,2.54589793,False,True
5720,Li2AlFeO4,mp-772436,Pca2_1,2.8090927901983624,0.08473543546875018,2.9257,0.89313945,False,True
5721,Li3MnV(PO4)3,mp-887315,C2,2.877077441585519,0.07159555793749739,0.637,2.24217922,False,True
5722,Li9Mn2Co5O16,mp-1100577,Pm,4.158726623658459,0.12541642062500014,0.0,2.64722391,False,True
5723,Li3Co2(PO4)3,mp-774352,P2_1/c,3.0705950442651915,0.05830376803124526,0.9897,1.0352737,True,True
5724,Li7Mn4CoO12,mp-1175243,P1,3.957264480846496,0.06485944927083143,0.6255999999999999,2.79488096,False,True
5725,Li9Mn2Co5O16,mp-1176146,P1,4.204675578597048,0.09275642937500006,0.018000000000000238,2.77366688,False,True
5726,Li4Co3(OF3)2,mp-765689,P-1,3.8010451778002405,0.08268604666666679,2.5015,1.26485204,False,True
5727,Li5Mn(CoO4)2,mp-1174172,Cm,3.955018521223304,0.08245165406249733,0.0,2.17556392,False,True
5728,Li7Mn2(CoO4)3,mp-1978268,P-1,4.087376223837956,0.09789026187500038,0.3621000000000003,2.98870813,True,True
5729,Li7La3Zr2O12,mp-942733,I4_1/acd,5.013095012638695,0.006287939765624806,4.3315,3.20933929,False,True
5730,Li5Mn2P2(CO7)2,mp-768787,P2_1/m,2.724396619089511,0.047787290499999635,0.0,1.88264838,False,True
5731,Li8CeO6,mp-8611,R-3,3.3755617828492843,0.0020737446666645454,2.5034,0.98795398,False,True
5732,Li9Mn2Co5O16,mp-1176126,P1,4.169782693815558,0.09744945375000036,0.22520000000000007,2.77110835,False,True
5733,Li4Mn(SiO3)3,mp-780578,C2,2.6492094489002884,0.08304535367646348,1.8119999999999998,3.7648357,False,True
5734,Li8NbO6,mp-774697,P-1,2.982838543245167,0.06369841470833482,0.0,4.11641487,False,True
5735,Li3(FeO3)2,mp-1276910,C2,3.5881374357057116,0.07283018961038845,0.0,1.40534276,False,True
5736,Li2FeSiO4,mp-757833,Pna2_1,3.0697935603410103,0.013607593437500398,2.9237,2.19132696,False,True
5737,Li24Ti5Cr7O36,mp-768421,P1,3.4816931319866997,0.018025539062504592,0.9025000000000003,3.25525466,False,True
5738,Li2CoOF3,mp-755022,Cc,3.2019032925242006,0.07678161214285861,0.9122,-0.3747492,False,True
5739,Li7Co5O12,mp-1979024,P-1,4.29705783628978,0.07701707812499681,0.15500000000000025,2.61336798,False,True
5740,Li6Mn(FeO3)2,mp-1310460,P-1,3.59366494979224,0.04884727808333267,2.8907,2.30024569,True,True
5741,Li2FeH8(SO6)2,mp-778185,P2_1/c,2.07522504717207,0.055771635599993985,3.8098999999999994,0.54868333,True,True
5742,Li2Co(SiO3)2,mp-758354,C2/c,2.83883089395822,0.04953186590908931,0.8506,3.1800967,False,True
5743,Li2MnPCO7,mp-756699,P-1,2.6264183191331565,0.009232774374996922,0.6842999999999999,0.89430839,False,True
5744,Li9Mn2Co5O16,mp-1176295,P2,4.310686638672313,0.07758632656250075,0.1889000000000003,3.29094705,False,True
5745,Li3Mn2(P2O7)2,mp-849996,P1,2.9597111071825957,0.028495873586956044,0.11430000000000007,1.64920929,False,True
5746,Na2Li2CoO4,mp-759586,P2_1/c,2.7866829910346755,0.07330476638889216,0.8674,0.4964826,False,True
5747,Li2FeP4(H4O5)4,mp-759228,P2_1/c,2.1371367844189617,0.014989369069771108,2.6388,0.70193772,False,True
5748,Li5V3P8O29,mp-759994,Cc,2.5203681954573387,0.032167104092591714,1.3402999999999998,0.18280539,False,True
5749,Li2CuSiO4,mp-758498,Pc,3.3682033858875533,0.07214357625000023,0.0,2.50716515,False,True
5750,Li9Mn2Co5O16,mp-1100665,Cm,4.1601417400303635,0.10477780000000081,0.0,3.14980102,False,True
5751,Li4Co3O7,mp-1174408,C2/m,4.156233482261033,0.11217142857142548,0.0,2.27738372,False,True
5752,K4Li3Mn2O8,mp-758550,Pc,2.6407730079993343,0.07405099966752182,0.46630000000000016,1.54286098,False,True
5753,Li9Co7O16,mp-1175505,P-1,4.275403696099781,0.06510743843749989,0.7370000000000001,2.35355464,False,True
5754,Li8PbO6,mp-22538,R-3,4.35864044828757,0.0010535976666661284,2.3403,1.09596685,False,True
5755,Li3Cr(BO3)2,mp-756530,P-1,2.817746416659118,0.05397702083332856,1.7919000000000003,1.29070677,False,True
5756,Li7Mn5O12,mp-1646634,P-1,3.8605269735220373,0.03156421937500031,0.7646000000000002,2.83177702,False,True
5757,Li7Mn5O12,mp-1175325,P-1,3.8508237487261874,0.030586176458333725,0.8407,3.51809767,False,True
5758,Li2MnO2F,mp-753364,P1,3.576306954756093,0.09236453124999588,0.5186999999999999,1.76283565,True,True
5759,Li4MnCo2O7,mp-1174448,P-1,4.1065525627477895,0.08576230857142697,1.0321000000000002,2.24580912,False,True
5760,Li3Co2(CO3)4,mp-1641018,P1,2.503513475027697,0.037316493551593055,0.6345999999999999,-0.11001917,False,True
5761,Li3Mo(PO4)2,mp-26519,P2_1/c,3.4809847235178384,0.029429353392841584,3.9361,3.03295671,False,True
5762,Li8PtO6,mp-8610,R-3,4.594222522367486,0.0,2.1611,1.77105021,True,True
5763,Li2MnSiO4,mp-831245,Pc,2.9941875917043212,0.005338674999999071,2.8158000000000003,2.08465853,False,True
5764,Li3Mn2P2(CO7)2,mp-768737,P2_1,2.690595151054194,0.03496986836952054,0.0,0.95998381,False,True
5765,Li7Ni(O2F)2,mp-799539,P1,2.6469225565404737,1.2345778184523803,0.16569999999999996,1.27408946,False,True
5766,Li2FeH4(SO5)2,mp-770588,P-1,2.541077045508908,0.04886201710526006,4.236700000000001,1.20305332,False,True
5767,Li2Co(SO4)2,mp-850927,Pbca,2.984103799021421,0.0086382949038466,2.9451,2.32921501,True,True
5768,Li4V3P8O29,mp-765396,P1,2.5434021880254973,0.049612055265150445,0.4515,0.64293461,False,True
5769,Li8VO6,mp-1315015,P-1,2.638225852220611,0.028345013833330768,1.8385999999999998,1.4558216,False,True
5770,Li2FeP4O13,mp-759091,P-1,2.4447771669694953,0.07414456123957347,0.041800000000000004,-0.19619093,False,True
5771,Li4Mn2(PO4)3,mp-760127,P2_1/c,2.869292021149903,0.03550385428567271,0.0,1.69960883,True,True
5772,Li2FePCO7,mp-768645,P2_1/c,2.7187654962449797,0.014898512812518305,2.4693,0.75164472,False,True
5773,Li3MnCoO5,mp-1174405,R-3m,3.8807155085826857,0.2556731304999902,0.0,2.49120656,False,True
5774,Li5Co3O8,mp-1174104,P-1,3.9672248344140146,0.09484347499999757,0.37239999999999984,2.00260689,False,True
5775,Li7Mn4CoO12,mp-1175259,P1,3.9533587818356364,0.060049889270832324,0.6183999999999998,2.84113001,False,True
5776,Li4CoO4,mp-753010,P4_22_12,2.6818174175821765,0.12294773194444453,0.9940999999999999,0.14906655,True,True
5777,Li3Ti2(PO4)3,mp-757276,C2/m,3.155782269568861,0.07491502773332748,0.0,5.21374669,False,True
5778,Li3Sc(BO3)2,mp-557012,P2_1/c,2.552562640781395,0.0,4.1608,0.90726512,False,True
5779,Li7Mn2(CoO4)3,mp-1175033,P1,4.057700474921915,0.10619128333333361,0.0,2.66290704,False,True
5780,Li7Mn4CoO12,mp-1175195,P1,3.980860475587289,0.029931072604164832,0.8375999999999997,3.61626349,False,True
5781,Li3FePCO7,mp-752696,P2_1,2.76947524551103,0.04064143576923218,3.899,1.39248018,False,True
5782,Li5Mn2CoO8,mp-1174121,C2/m,3.7990867433402498,0.1573087956250001,0.0,2.45353882,False,True
5783,Li4V3P8O29,mp-764989,P1,2.5421911021824224,0.050634453333332274,0.8959999999999999,0.30808165,False,True
5784,Li2FeSi3O8,mp-772029,P1,2.5537207580927967,0.07220824267857129,2.7788000000000004,1.82909516,False,True
5785,Li6MnV3(PO4)6,mp-1176977,P1,2.918425996120637,0.018146865140608703,0.3467,1.9572167,False,True
5786,Li2CuPO4,mp-26851,Pm,3.3123271961947274,0.04951760625000112,1.3886000000000003,5.21128025,False,True
5787,Li4V3P8O29,mp-765043,P1,2.5439993473060762,0.05007505049242322,0.3228,0.6631267,False,True
5788,Li9Mn2Co5O16,mp-1175999,P1,4.203872356612405,0.1061076053125003,0.10539999999999994,2.96491869,False,True
5789,Li9Mn2Co5O16,mp-1176274,P1,4.1142786350778415,0.1274119259375004,0.16100000000000003,2.60507324,False,True