,formula,mp-id,crystal system,density,energy above hull,band gap,efermi,is gap direct,theoretical
2706,Li2TeO3,mp-559554,C2/m,2.012391630712951,0.002722962916666738,3.9576,-2.02565687,False,True
2707,Li9Mn2Co5O16,mp-1175975,P1,4.2200210943242435,0.07596355031250024,0.6837,2.66410353,False,True
2708,Li3Cr2(PO4)3,mp-26045,P2_1/c,3.0739395548589123,0.003625004750004379,2.9063000000000003,1.81409678,False,True
2709,Li9(NiO4)2,mp-775731,Pca2_1,2.6021029969196707,0.09109427741227538,0.0,0.2393661,False,True
2710,Li2AlFeO4,mp-770707,Pna2_1,3.024010381346526,0.025090541249999987,2.6668,1.21025051,True,True
2711,Li2CoP2O7,mp-757506,P2_1,2.777111267473485,0.10049894597220277,2.5356,1.45414925,False,True
2712,Li7Mn4CoO12,mp-1175175,P-1,3.955397562131303,0.05945561802083166,0.4855999999999998,3.23761708,False,True
2713,Li2MnOF3,mp-753282,C2/m,3.0983065075102445,0.03317831482142797,1.2664,0.16242933,False,True
2714,Li2CoP2O7,mp-778815,P2_1,2.8791350356208656,0.01461912076386973,2.9811000000000005,1.54894511,False,True
2715,Na2Li4Ni2C4SO16,mp-758866,Fddd,2.7874577284119737,0.054254273103449435,2.9563,1.26130847,False,True
2716,Li3Ni2P5O16,mp-26191,P2/c,2.925795320891832,0.014403235128197522,4.0992,1.37099058,True,True
2717,Li7Mn4CoO12,mp-1643524,C2/m,4.002725678771576,0.0274195846874985,0.7755999999999998,3.01387701,False,True
2718,Li3VPCO7,mp-25463,P2_1/m,2.6859251564109474,0.0685425034615399,2.6239000000000003,3.24799576,False,True
2719,Li8(CoO2)5,mp-1646718,P-1,3.3238539584140976,0.05433765741847907,0.4015000000000002,1.60095783,False,True
2720,Li9Mn2Co5O16,mp-1176256,P1,4.184672639573187,0.11303456031250025,0.0,2.67013555,False,True
2721,Li3MnCoO5,mp-1174413,R3m,3.9025117994029834,0.26028391749999,0.0,2.66968633,False,True
2722,Li9Mn2Co5O16,mp-1176297,C2/m,4.2314683974600165,0.11138325281250072,0.0,2.73557379,False,True
2723,Li4TiO4,mp-1177252,P1,2.2530207558252924,0.0780207743055561,3.3205,0.17000906,False,True
2724,Na2Li4Co2C4SO16,mp-760207,Fddd,2.7405739227590287,0.05607661120689578,2.6305,1.15715341,False,True
2725,Li7Mn5O12,mp-1652820,P1,3.8485485651115403,0.030952896458334322,0.7072000000000003,3.48001884,False,True
2726,Li4V(BO3)2,mp-777961,Pnnm,2.6351398331930596,0.0,2.7351,2.6862271,False,True
2727,NaLi5Fe2P2(CO7)2,mp-1101651,P1,2.812132264725179,0.048323898076922944,0.0,3.47872463,False,True
2728,Li2VBO4,mp-770346,Pnma,3.0636968888270357,0.10549467749999941,1.7394000000000003,2.93988316,True,True
2729,Li3MnCoO5,mp-1174409,R3m,3.846550782906923,0.23673034199998977,0.0,2.47101295,False,True
2730,Li12Fe3NiP4(CO7)4,mp-766564,Pm,2.8398408286713606,0.046225142980769185,3.1360999999999994,2.14846083,False,True
2731,Li3Tb3(TeO6)2,mp-1211213,Ia-3d,6.498508796767078,0.0,3.5219,5.99054495,False,True
2732,Li12Fe5O16,mp-760142,P1,3.459923092249051,0.0765640856060612,0.0,1.57129425,False,True
2733,Li5Mn2CoO8,mp-1290640,P-1,3.9358232055987514,0.05975918156250071,0.14749999999999996,2.56774884,True,True
2734,Li2VO2F,mp-1280725,Cm,3.5439769423547416,0.06391835999999618,1.2995999999999999,3.28133145,False,True
2735,Li9Co3P8O29,mp-583985,P-3c1,2.8527420924178934,0.014826289472789966,0.8798000000000001,1.32594411,False,True
2736,Li7Mn4CoO12,mp-1175216,P1,3.9838522172058197,0.05477582302083128,0.48039999999999994,3.554362,False,True
2737,Li3Fe2P2(CO7)2,mp-768618,P2_1,2.6499463093839295,0.044309148804346776,0.0,0.13431976,False,True
2738,Li3ZnPCO7,mp-772753,P2_1,2.8741269681845147,0.04194048346153956,4.138199999999999,0.88874074,False,True
2739,Li3MnO3,mp-756408,P4_2/mnm,2.969143283161038,0.01677858714286007,1.3918,0.53552252,True,True
2740,Li2Mn(CO3)2,mp-766018,P1,2.4002225084046804,0.06531609681817763,3.6796000000000006,0.98202746,True,True
2741,Li9Co7O16,mp-1175382,C2/m,4.2730171000627895,0.05616972562499978,0.8984000000000001,2.97778031,True,True
2742,Li3NbOF6,mp-769384,P2_12_12_1,3.437501814272727,0.051663940795454444,4.9368,-1.39814408,False,True
2743,Li2LuSiO5,mp-1189864,P-1,4.548558555593791,0.08876958374073851,0.0,1.94672814,False,True
2744,Li7Mn4CoO12,mp-1977559,C2/m,3.951069446836581,0.06574794260416539,0.0,2.75627216,False,True
2745,Li2V(OF)2,mp-761260,Imma,3.041786735765082,0.09772794357143244,0.0,1.49852982,False,True
2746,Li3V2H4(OF5)2,mp-758217,Pc,2.412892010241077,0.061276661904760665,0.7545000000000001,0.03498149,False,True
2747,Li9Mn2Co5O16,mp-1176257,P1,4.150552153614366,0.1248189746875008,0.0,2.53227848,False,True
2748,Li9Mn2Co5O16,mp-1100565,Pm,4.127744712947205,0.12251456718750031,0.0,2.48987056,False,True
2749,Li2CuSiO4,mp-758708,Pna2_1,3.34175882605365,0.06791543312500004,0.0,2.5566177,False,True
2750,Li9Mn2Co5O16,mp-1176262,P1,4.219433109247827,0.11829356781250056,0.0,2.63826255,False,True
2751,Li10Mn3Cr2Ni3O16,mp-778885,Cm,4.259629265172765,0.0809560864705885,0.37219999999999986,3.85204476,False,True
2752,Li7Mn2(CoO4)3,mp-1174936,P1,4.105513998239049,0.1293846437500008,0.0,2.85529207,False,True
2753,Li9Mn2Co5O16,mp-1100612,Pm,4.167779630597911,0.09853592906250075,0.0,3.1875154,False,True
2754,Li2MnSiO4,mp-780709,Pna2_1,2.964279618296622,0.009583912187499877,2.9646999999999997,1.92235958,False,True
2755,Li9Mn2Co5O16,mp-1175933,P1,4.184318748703057,0.20156412375000077,0.0,2.13392424,False,True
2756,Li3V2(OF)4,mp-1177506,Pm,2.9231432175469294,0.08326780692308233,0.374,0.854782,False,True
2757,Li3V2P5O18,mp-821758,P-1,2.9766985706122533,3.1945271388690184,0.0,3.28885867,False,True
2758,Na2Li3CoO4,mp-504854,Pnnm,2.8773142866396375,0.0,1.4597,1.26346749,False,True
2759,Li3BiO4,mp-557738,P4_2/mnm,6.076926929557232,0.0023281581249996464,1.0578999999999996,2.09080846,False,True
2760,Li2CuP3(HO5)2,mp-849277,P-1,2.7163692571280835,0.0848262222608005,1.6397,3.72036244,False,True
2761,Li4Mn3O7,mp-1174308,P-1,3.886653510388839,0.028915499642856446,0.0005999999999999339,3.65698317,False,True
2762,Li9Mn2Co5O16,mp-1175809,P1,4.1958969221831595,0.16094948531250086,1.2481999999999998,2.3637833,False,True
2763,Li3Co(OF)2,mp-754312,P2/c,3.5079109034127134,0.13059817562499987,1.2644,1.59688304,False,True
2764,Li3Fe2P2(CO7)2,mp-756197,P1,2.651039677008469,0.04386592706521686,0.0,0.13852483,False,True
2765,Li2MnAl2O6,mp-770689,Cmce,3.3925330865750944,0.08410427819602617,1.7195999999999998,2.61686648,False,True
2766,Li2Mn(SO4)2,mp-1193172,P2_1/c,2.622550375338312,0.0,3.5794000000000006,0.89647613,True,True
2767,Li6FeO4,mp-756155,P4_2/nmc,2.566593651994418,0.025519845000000707,2.2934,1.60572711,True,True
2768,Li2VP2O7,mp-1340913,P-1,2.8722718483764056,2.3350217641753392,0.0,3.38439768,False,True
2769,Li4MnCo2O7,mp-1174697,P1,4.156045711890881,0.10986891285714151,0.15839999999999987,2.69865633,False,True
2770,Li9Mn2Co5O16,mp-1100719,P2/m,4.170502698842316,0.0746462531250005,1.2971999999999997,2.23680237,False,True
2771,Li2BiBO4,mp-768731,Pnma,5.711645199259292,0.09657290802083285,1.9028999999999998,3.58244198,False,True
2772,Li2CoO3,mp-1284624,P-1,3.8182247463652725,0.07107369333333402,0.46030000000000015,1.64721946,False,True
2773,Li2CoSiO4,mp-761247,Pna2_1,3.191415620834802,0.006242333437493919,2.8296,2.06361315,False,True
2774,Li9Mn2Co5O16,mp-1175895,P1,4.152064659147195,0.08830951937500053,0.16880000000000006,2.75819832,False,True
2775,Li4Mn3OF8,mp-849279,Cm,3.5405286056948744,0.0718151643749998,2.5141,2.31855766,False,True
2776,Li2V(PO4)2,mp-850197,P2_12_12_1,2.5314367364585406,0.07678022333332368,2.9619999999999997,0.79232342,False,True
2777,Li3Bi(BO3)2,mp-768788,P2_1/c,4.311781349646203,0.07323644562499787,3.66,1.80734364,False,True
2778,Li5Cr(P2O7)2,mp-1177176,P-1,2.7805228280230967,0.07094833041666337,2.7011,1.48562199,False,True
2779,Li3Mo2P5O18,mp-821716,P-1,3.257188364183904,3.063052366726178,0.0,3.22948502,False,True
2780,Li7Mn2(CoO4)3,mp-1174863,P-1,4.11575041646063,0.06782525250000049,1.1019,2.29146248,False,True
2781,Li10Ti2Mn3Ni3O16,mp-777402,P1,4.143707947153941,0.09679557919117698,0.3022,4.16840237,False,True
2782,Li7Fe3O8,mp-806082,P-1,2.885504448786921,2.382719579444449,0.0,2.33751852,False,True
2783,NaLi5Mn2P2(CO7)2,mp-772652,P-1,2.7400136771005967,0.046917933012815105,3.5994999999999995,2.05263115,False,True
2784,Li2CrO3,mp-755602,Cmmm,3.4252959844350563,0.10276260708333229,0.0,1.72364998,False,True
2785,Li3Fe2(PO4)3,mp-775523,C2,2.9852701549108183,0.04417104425000584,2.2652,1.33083079,True,True
2786,Li9Mn2Co5O16,mp-1176134,P1,4.128195761495012,0.12424839843750046,0.035399999999999654,2.68431898,False,True
2787,Li7Mn5O12,mp-1641274,P-1,3.8578554812684955,0.03448686812500057,0.5373000000000001,2.87961868,False,True
2788,Li3Mn2O5,mp-1174015,C2/m,3.8402523615238424,0.047992716000000435,1.0038,3.73135995,False,True
2789,Li15Zr7(Cu3O14)2,mp-774800,P1,4.621963612375607,0.0535317941964264,0.0,3.09721751,False,True
2790,Li6Mn3(PO4)4,mp-780723,P1,2.8193717980508177,0.0810870250862008,3.3653000000000004,1.88638746,True,True
2791,K2Li3NiO4,mp-774432,P2_1/c,2.958787662024303,0.0,1.4741000000000002,2.62273194,False,True
2792,Li2Sb(PO3)5,mp-684477,P2_1/m,2.578956944157638,0.03696996105073058,3.7536999999999994,0.96949817,True,True
2793,Li2Co(Si2O5)2,mp-757865,P2_1/m,2.56408828853134,0.1195760632352938,2.1769,1.7680875,False,True
2794,Li3Cr2P2(O4F)2,mp-759310,P-1,3.096566768474281,0.01446067867647649,1.4299000000000004,2.8970965,False,True
2795,Li7Co5O12,mp-771155,C2/m,4.684899722555874,0.003907136249996945,0.0,3.0941583,False,True
2796,Li3MnCoO5,mp-1174290,Cm,3.862340016637517,0.2516350174999902,0.0,2.30401515,False,True
2797,Li6CaCeO6,mp-556301,P-31c,3.295897977966314,0.02352419571428488,2.4901,0.97570578,False,True
2798,Li9Mn2Co5O16,mp-1176106,P1,4.166996085694272,0.1130984393750003,0.029799999999999827,2.70598819,False,True
2799,Li3Co2(CO3)4,mp-1638962,P1,2.495938264979952,0.03670892450397467,0.6923,-0.19621072,False,True
2800,Li3MnV(PO4)3,mp-777839,P1,2.8548160271637304,0.06891618093749763,0.3071999999999999,1.88481656,True,True
2801,Li12Cr5O16,mp-764428,P1,3.485668854753667,0.09584117159090866,0.23239999999999972,2.87630098,False,True
2802,Li9Mn2Co5O16,mp-1175621,P1,4.260933792172638,0.060008045625000506,0.5926,2.49487077,False,True
2803,Li9Mn2Co5O16,mp-1176000,P1,4.132258184045467,0.1507164225000004,0.043400000000000105,2.76378734,False,True
2804,Li7Mn5O12,mp-1638910,C2/m,3.8378086291511044,0.04060580104166611,1.3117,2.53565977,False,True
2805,Li2Mo(PO4)2,mp-583981,P-3,3.154739314866931,0.0273154753846363,1.9317,1.3233865,False,True
2806,Li9Mn2Co5O16,mp-1175727,P1,4.25371477420515,0.07090423093750076,0.8140000000000001,2.61977266,False,True
2807,Li4MnCo2O7,mp-1174471,P-1,4.05582517533199,0.12315550321428503,0.07170000000000032,2.56706326,False,True
2808,Li2CoSiO4,mp-762264,P3_121,3.2399312483342406,0.08006952333332773,2.6016000000000004,2.06732877,False,True
2809,Li3CoPCO7,mp-766821,P1,2.891604214624684,0.06945743730769216,2.297,1.63758848,True,True
2810,Li9Mn2Co5O16,mp-1175857,P-1,4.119190490401944,0.13225144437500003,0.0,2.61239394,False,True
2811,Li9Mn2Co5O16,mp-1175929,P1,4.255450329810662,0.09272318562500015,0.0,2.78536566,False,True
2812,Li7ZrO6,mp-937761,R3,2.7711567815197458,0.07437854642856934,0.0,-0.15096037,False,True
2813,Li5Mn2P2(CO7)2,mp-754486,Pm,2.6838890944860454,0.046070117700000246,0.0,1.84673887,False,True
2814,Li3MnV(PO4)3,mp-1177559,Pc,2.9219979296324228,0.06252950943749713,0.20350000000000001,2.14532949,False,True
2815,Li12Co3NiP4(CO7)4,mp-766567,Pm,2.8982693806831374,0.044179027692309525,2.84,1.96481137,False,True
2816,Li3V(PO4)2,mp-757278,P-1,2.9291877637359383,0.044250274702354986,1.7604999999999995,2.37732868,False,True
2817,Li2Co(PO3)4,mp-540530,P-1,2.803663015927887,0.04630253100877191,2.8594999999999997,1.26111846,False,True
2818,Li6Mn3CoO10,mp-1174849,P1,3.9318732396480773,0.06916119787499841,0.6189,2.78570155,False,True
2819,Li9Mn2Co5O16,mp-1175864,P1,4.190995042784161,0.07219631500000023,1.3632999999999997,3.47776959,False,True
2820,Li6Ni2P(CO4)4,mp-770626,Fd-3,2.8605749533694125,0.07763252140086152,0.0,1.18674802,False,True
2821,Li2Cu(Si2O5)2,mp-849775,P2_1/m,2.7225857343069912,0.10376479382353043,0.3051999999999997,2.79269708,False,True
2822,Li9Mn2Co5O16,mp-1100615,Cm,4.150068931058359,0.1144531200000003,0.2532000000000001,2.52179156,False,True
2823,Li9Mn7O16,mp-1100580,P2/m,3.929102148663936,0.03955672671875021,1.2156000000000002,3.92062904,False,True
2824,Li6MnV3(PO4)6,mp-777372,P1,2.855232964104791,0.04142932114061004,0.0,2.35875399,True,True
2825,Li2BiBO5,mp-768764,P4/nmm,5.532604307677275,0.0559842573611089,0.0,2.61733329,False,True
2826,Li4Zn(PO4)2,mp-1200615,P2_1,2.773301040430682,0.0007994176666663577,4.6914,0.6863155,True,True
2827,Li3Ni(PO4)2,mp-25891,P2_1,2.641103215813076,0.07401064272320834,0.30410000000000004,0.58648896,True,True
2828,Li2MnP2O7,mp-775905,P2_1/c,2.7874784649035234,0.029375897916666283,4.0492,1.58426881,False,True
2829,Li21(FeO4)4,mp-769519,C2,2.5529905845045717,0.028553344390244817,1.0675,3.08405351,False,True
2830,Li3Sn2(PO3)7,mp-757560,P-1,2.880937213599046,0.07246972040403943,4.3251,1.68508677,True,True
2831,Li6Mn3CoO10,mp-1174771,P1,4.014059729012468,0.030033053374997287,0.9559000000000002,3.00292073,False,True
2832,Li3Mn2P2(CO7)2,mp-768752,P1,2.6901166189080494,0.035753766195607106,0.244,0.91225753,False,True
2833,Li2FeO2,mp-1177943,C2/m,3.630131281692282,0.04374304549999941,3.1408000000000005,1.97429926,False,True
2834,Li5Si2BiO8,mp-859129,C2,3.7227259851514662,0.05917327578124798,2.54,1.66577811,False,True
2835,Li4Co3O7,mp-1174179,P-1,4.278311477545694,0.053606986428568426,0.28279999999999994,2.85243831,False,True
2836,Li3V2(SiO5)2,mp-779630,Pmc2_1,2.957404754331029,0.06435376705880724,1.2995,1.96727445,False,True
2837,Li2SeO7,mp-1194671,Pnna,2.4540441630447534,0.6261165175416679,0.2336,0.4542139,True,True
2838,Li9Co7O16,mp-1175396,P2/m,4.273192870633425,0.07019703343750017,0.21660000000000013,2.38351018,False,True
2839,Li3Fe2(SiO4)2,mp-1306409,P1,2.9137044792552005,0.04395580966667367,1.4957,3.35288506,False,True
2840,Li4Co3O7,mp-1174237,P-1,4.164908512106453,0.10735020035714005,0.2864,2.10360149,False,True
2841,Li7Mn2(CoO4)3,mp-1174506,P-1,4.078316679529338,0.05723368916666782,1.4909999999999997,3.5299787,False,True
2842,Li8SnO6,mp-4527,R-3,3.4525147282503186,0.0,4.2994,1.36872277,False,True
2843,Li4Mn2C4SO16,mp-776358,Fddd,2.588325674550717,0.06791401898148042,0.7852,0.60973851,False,True
2844,Li3(FeO3)2,mp-1305099,P-1,3.585399816495386,0.07003573233766058,0.0,1.34226955,False,True
2845,Li3Fe2(P2O7)2,mp-1177912,P1,2.999932978590117,0.03912447496378757,0.08589999999999987,1.79731734,False,True
2846,Li2SnP2O7,mp-761841,P2_1/c,3.262345146011002,0.04096310989581564,3.2933,6.09938112,False,True
2847,Li7Fe3(SiO6)2,mp-753111,C2/m,3.6918228820668735,0.07867484885416953,1.3649999999999998,3.33757381,False,True
2848,Li3Mn(PO4)2,mp-1663957,P-1,3.0575095535096724,0.02431589750004992,1.0274999999999999,1.93292955,False,True
2849,Li9Mn2Co5O16,mp-1175616,P1,4.25054196550525,0.08024786500000047,0.7193999999999998,3.40153698,False,True
2850,Li4MnCo2O7,mp-1174682,P1,4.1109817271820015,0.07390097285714159,1.2708,3.41487453,False,True
2851,Li2CoSi3O8,mp-753262,P2_1,2.6425867967695846,0.06994794785714653,3.1591,2.32775627,False,True
2852,Li9Mn2Co5O16,mp-1176087,P1,4.085779002886086,0.13072367468750024,0.0,2.60445944,False,True
2853,Li2Cu(PO3)4,mp-758929,P2_1/c,2.3724593361886894,0.06249792969296131,0.0,0.92528417,True,True
2854,Li9Mn2Co5O16,mp-1100730,C2/m,4.16213127244613,0.14456021125000085,0.0,3.11638333,False,True
2855,Li9Mn2Co5O16,mp-1175865,P1,4.158943568942055,0.07622337593750039,1.2416999999999998,3.39426319,False,True
2856,Li4V3P8O29,mp-775173,P1,2.519397357927168,0.04685597912878592,0.8424,0.29535621,False,True
2857,Li3Bi(PO4)2,mp-1101536,P1,4.318191316965504,0.04365427238095165,3.8058,2.16405775,False,True
2858,Li9Mn2Co5O16,mp-1175963,P1,4.23576713022581,0.2654368593750007,0.0,2.7558008,False,True
2859,Li9Mn2Co5O16,mp-1176187,P1,4.157646267581057,0.18576322031250037,0.0,2.52152675,False,True
2860,Li16Fe4SiO16,mp-757339,P1,2.668398943817202,0.10479617094594484,1.8915999999999997,0.91644802,False,True
2861,Li6V3P8O29,mp-1176948,P1,2.572903326260693,0.023873098976441298,0.9114000000000001,0.84201479,False,True
2862,Li7Mn4CoO12,mp-1175290,C2/m,3.9521742929811228,0.05865935447916559,0.0,3.38067777,False,True
2863,Li7Mn5O12,mp-1643648,P-1,3.855816841996775,0.029440995416667448,0.8451,3.55133942,False,True
2864,Li3CrO4,mp-770728,P2,3.2933349173659145,0.0744761924999997,0.0,2.07850227,False,True
2865,Li3CoSiBO7,mp-771167,P2_1/m,3.0036347976375404,0.08785585526442397,0.02519999999999989,1.93982186,False,True
2866,Li2CuPO4,mp-26875,P2_1/c,3.3108888506198584,0.06577194312500101,1.2059999999999995,4.00825415,False,True
2867,Li3PWCO7,mp-25404,P2_1/m,3.794644322068539,0.27224016148351726,0.7744999999999997,4.85987541,False,True
2868,Li5V3P8O29,mp-1177053,P1,2.528756356427123,0.03516606720370241,0.928,0.43263069,False,True
2869,Li2FeH12(SO7)2,mp-770572,P2_1/c,1.9963680268812551,0.06394135854838723,3.9178,0.05870002,True,True
2870,Li9Mn2Co5O16,mp-1175694,P-1,4.31044403838931,0.08243921125000053,0.01770000000000005,3.25860626,False,True
2871,Li7La3(SnO6)2,mp-1200057,I4_1/acd,5.350744501228832,0.00912957825520877,3.8804,4.23721391,True,True
2872,Li8VNi3(PO4)6,mp-760785,R3,3.076438751560378,0.07020597226190439,1.5875000000000001,1.92396267,False,True
2873,Li4Fe3(SiO4)3,mp-778793,P1,3.0306539393651275,0.10054742488636315,0.5446,2.21071529,False,True
2874,Li10Fe3Co2Ni3O16,mp-778201,P1,4.470125153412739,0.09357911602940927,0.0,3.24888399,False,True
2875,Li12V3CrP4(CO7)4,mp-766538,Pm,2.6872362118562236,0.07572836979567299,1.9742000000000002,3.33118999,True,True
2876,Li2MnO2F,mp-753906,C2/m,3.491745148241296,0.10840198166666148,0.8622999999999998,3.09147188,False,True
2877,Li9Mn7O16,mp-1100530,P-1,3.896202279349632,0.033691793281249716,0.0,2.99060417,False,True
2878,Li2Al2FeO6,mp-768173,C2,3.482002518768348,0.07550068152597245,0.0,3.73551615,False,True
2879,Li24Mn7Cr5O36,mp-780441,P1,3.665930607084061,0.032241906875000836,0.7546000000000004,3.03028142,True,True
2880,Li5Cu(PO4)2,mp-779046,Pc,2.8938105886448335,0.0344740735937501,2.0374000000000003,3.7696314,False,True
2881,Li2VOF4,mp-1298606,P2_1,2.7580610055884995,0.0045030509375001415,2.0491,0.96594403,False,True
2882,Li9Mn2Co5O16,mp-1175638,P-1,4.143562168137339,0.13336581875000064,0.0,2.43234621,False,True
2883,Li2CoO3,mp-1173881,P-1,3.8302500633367162,0.08218245583333328,0.1602999999999999,2.19222413,False,True
2884,Li3Y(NO3)6,mp-1212171,P2_1/c,2.1620109045892395,0.0,3.1094,-0.618013,False,True
2885,Li9Mn7O16,mp-1100515,P-1,3.9254273974217697,0.03446221484374945,0.0,3.08443906,False,True
2886,Li5Mn3O8,mp-1174741,P-1,3.8178678324457755,0.030264895937500036,0.7887,2.85193893,False,True
2887,Li5Fe2P2(CO7)2,mp-1177151,P-1,2.761505615617296,0.028730679750005983,1.6246999999999998,1.50728568,False,True
2888,Li5Mn2CoO8,mp-1174428,Cm,3.8544441297686975,0.11751966000000014,0.0,2.49392532,False,True
2889,Li9Mn2Co5O16,mp-1176141,P1,4.1817058841801416,0.1137875187500006,0.0,2.42502295,False,True
2890,Li9Mn7O16,mp-1100504,P-1,3.875939856884517,0.06497256609374968,0.0,2.49798177,False,True
2891,Li2NiP2O7,mp-765564,C2/c,2.9403382562541123,0.06696986784722014,2.4722999999999997,1.39698534,False,True
2892,Li7Mn5O12,mp-1175340,P-1,3.8670702360512346,0.05174005270833337,0.4314,2.85097293,False,True
2893,Li6V3P8O29,mp-759755,P1,2.608162246414826,0.02653503495470222,1.2262,0.82955358,False,True
2894,Li4Fe(PO3)6,mp-757456,C2/c,2.7292848579679125,0.06833631887929581,4.8517,1.98584058,True,True
2895,Li9Co7O16,mp-1175459,P2/m,4.2855100470912335,0.07785297687499959,0.0,2.6648639,False,True
2896,Li3MnCoO5,mp-1174064,C2/m,3.9881125640153687,0.05704708999998864,0.4277000000000002,3.23473466,False,True
2897,Li3CrPCO7,mp-757179,P2_1,2.724415362561516,0.08394088617788587,2.4109999999999996,2.2820961,False,True
2898,Li5Mn2CoO8,mp-1297691,P-1,3.9215901923067626,0.08094216875000004,0.2629999999999999,2.74578328,True,True
2899,Li9Mn2Co5O16,mp-1176299,P2,4.240299684672035,0.08483686062500073,0.4495,3.45682003,False,True