,formula,mp-id,crystal system,density,energy above hull,band gap,efermi,is gap direct,theoretical
3670,Li2Si2NiO6,mp-861394,Fdd2,2.901246303983784,0.10053948083331932,3.7604999999999995,1.6919173,False,True
3671,Li4Ni(PO3)6,mp-863422,C2/c,2.793629817383163,0.07227125750000152,4.9554,1.17866981,False,True
3672,Li8ZrO6,mp-770648,P6_3cm,2.582018866405588,0.05492602433333005,4.0226,-0.00497783,True,True
3673,Li5V3P8O29,mp-765231,P1,2.559392854100182,0.032083910314813835,0.8071,0.80905674,False,True
3674,Li7Mn2(CoO4)3,mp-1175188,Cm,3.9791270061229995,0.12367070500000121,0.01470000000000038,2.85090232,False,True
3675,Li9Mn2Co5O16,mp-1100691,P2/m,4.143148117556981,0.10425087812500067,0.0,2.70225614,False,True
3676,Li2Mn(CO3)2,mp-765973,Fdd2,2.3496384666990333,0.037816197272722896,3.0605,0.35318982,True,True
3677,Li3MnPCO7,mp-766691,P1,2.7292084226434494,0.06289841923077066,3.5184,2.16694367,False,True
3678,Li9Mn2Co5O16,mp-1175613,P1,4.237686926528634,0.11137593437500026,1.2126000000000001,2.50222326,False,True
3679,Li4MnCo2O7,mp-1174593,C2/m,4.027166501941382,0.1471456035714267,0.0,2.49182744,False,True
3680,Li2PWO4F,mp-1173010,P1,4.71530199744698,0.3829392697222245,0.9673999999999996,3.97537533,False,True
3681,Li9Mn2Co5O16,mp-1175547,P1,4.26106874367126,0.07486647843750038,0.6576999999999997,3.38847673,True,True
3682,Li9Mn2Co5O16,mp-1176249,P1,4.1546766902806995,0.08688393468750011,0.2692000000000001,2.95793386,False,True
3683,Li2BiPCO7,mp-768216,P2_1,3.8848385537447814,0.04802413083333068,3.7498999999999993,0.91422422,False,True
3684,Li2CoO2,mp-1277330,C2/m,3.9151725166521203,0.03953099637500035,2.3336,2.27891569,False,True
3685,Li5Fe4P4O16F,mp-759015,I-4,3.3002838558023795,0.0785908613333337,3.4636,2.09770189,True,True
3686,Li9Mn2Co5O16,mp-1175710,P1,4.276104545273888,0.08204314000000057,0.0,3.023254,False,True
3687,Li2CrSiO4,mp-757733,P2_1/c,2.921372732734902,0.09832792447916283,1.1657000000000002,2.81908352,False,True
3688,Li2FePO4F,mp-1172969,P1,3.1219309572202407,0.058497152777772676,4.2299,5.79078115,False,True
3689,Li7NbO6,mp-37399,R3,2.9376579608399505,0.03574840723213857,3.352,0.39531059,False,True
3690,Li7Mn4CoO12,mp-1175186,P1,3.9680698492845456,0.04117888843749817,0.7385000000000002,3.4497805,False,True
3691,Li4MnV(PO4)3,mp-803041,P-1,2.8286952083893646,5.943237295714285,0.0,2.81913042,False,True
3692,Li5Co4(SiO4)4,mp-758904,Cc,3.0243921680045087,0.0568745715517176,0.4256,1.87696224,True,True
3693,Li3CoOF3,mp-752763,C2/m,3.49144954430806,0.13625142031250004,0.8489999999999998,2.15104644,False,True
3694,K4Li5(FeO4)2,mp-759002,P1,2.663320602420171,0.05074163279604882,0.013999999999999957,0.44685789,False,True
3695,Li3Cr2(PO4)3,mp-779336,C2,3.0148192719845563,0.052595301625004254,2.7965,1.70605451,False,True
3696,Li2VOF3,mp-1177749,P1,3.105034568056983,0.15863317964287216,1.0771000000000002,2.28173948,False,True
3697,Li9Mn2Co5O16,mp-1175533,P-1,4.187669818304808,0.07918051125000058,0.6105999999999998,3.06433718,False,True
3698,Li2MnSiCO7,mp-768606,P2_1/m,2.7260859288556865,0.06769094937499975,0.9821,0.81978792,False,True
3699,Li9Mn2Co5O16,mp-1176011,P1,4.17054845695784,0.08903454812500033,0.5987,2.42676806,False,True
3700,Li2CuP2O7,mp-25943,P2_1/c,3.099618665610286,0.038798963749993476,0.6390000000000002,5.37436472,False,True
3701,Li4H7RhS3O13,mp-1193504,R3,1.6253056164390738,0.8645566483660758,0.0,-0.37802067,False,True
3702,Li2CrSi7O16,mp-1369597,P1,2.5451485296383907,7.226792812653841,0.0,3.24925391,False,True
3703,Li7Fe4NiO12,mp-760174,P1,4.148284177631845,0.0938945957291688,0.0,2.59897118,False,True
3704,Li2CrH8Cl5O4,mp-770676,C2/c,1.6757721326929564,0.04096480958333082,3.1859,-1.77758744,False,True
3705,Li9Mn2Co5O16,mp-1341389,P1,4.223952176997467,1.0975851306250002,0.0,3.41751165,False,True
3706,Li7Mn4CoO12,mp-1175204,P-1,3.967896930118954,0.05113422156249925,0.0,3.11090093,False,True
3707,Li5Mn3O8,mp-1174498,C2/m,3.813740540695311,0.0366069721875002,0.6991999999999998,2.80590446,False,True
3708,Li3Co2(CO3)4,mp-759412,P2_1,2.2868193384015165,0.1211753592658793,0.7120000000000001,-0.44423093,False,True
3709,Li6MnV3(PO4)6,mp-760349,P1,2.914465649417805,0.022525185140609416,0.1591999999999998,1.99147592,False,True
3710,Li6VNi3(PO4)6,mp-759133,P1,2.987185544742397,0.0812230935572904,0.0,1.24063047,False,True
3711,Li3Bi2P5O18,mp-26245,P-1,3.8739827547125283,0.04678611852677772,0.2165999999999999,1.04459065,False,True
3712,Li4FeP6(H4O11)2,mp-1177403,P-1,2.4098395410301214,0.054006615548781056,4.0633,1.23565324,True,True
3713,Li9Mn2Co5O16,mp-1175806,P1,4.1778247193543745,0.08270660968750043,1.1509,2.17101209,False,True
3714,Li2SnBO4,mp-770833,P2_1/c,3.5360156949523054,0.07093041542968859,1.0700000000000003,2.47706564,False,True
3715,Li2MnSiO4,mp-759726,Pnma,3.0207593977937854,0.00018559562499831372,3.0557000000000003,1.85446174,False,True
3716,Li4CoO4,mp-759702,Pnnm,2.5634961990413263,0.09224102027777814,1.2373,-0.23960033,True,True
3717,Li3Mn2P2(CO7)2,mp-768733,P1,2.691291142253024,0.03619936206517327,0.0,0.48761003,False,True
3718,Li7Mn2(CoO4)3,mp-1175066,P1,4.003200346316719,0.13537190708333302,0.0,2.53917801,False,True
3719,Li9Mn2Co5O16,mp-1175720,P-1,4.226251004551088,0.09598863906250088,0.3184,3.26715985,False,True
3720,Li2MnCO4,mp-758215,P2_1/c,2.494404380973732,0.09835356874999945,2.1318,1.55025363,False,True
3721,Li4MnCo2O7,mp-1174730,P1,4.1071648324976575,0.12245291357142651,0.45120000000000005,2.63408796,False,True
3722,Li2MnP4H3O14,mp-780330,P2_1/c,2.3157318398185747,0.06313170184028483,0.0,0.50953865,False,True
3723,Li11Fe(WO4)7,mp-769470,Cm,5.112647792223648,0.04589430174202036,2.8156,-0.0485707,False,True
3724,Li2Fe(Si2O5)3,mp-775303,Cmce,2.526867072539006,0.059188308680552915,0.0,0.60091759,False,True
3725,Li3Co(PO4)2,mp-25996,P2_1,2.631109175047656,0.019293678616072896,0.8172999999999999,0.2528485,False,True
3726,Li10Fe2Co3Ni3O16,mp-779007,P1,4.552279775356892,0.1138522581617627,0.0,3.2920764,False,True
3727,Li6Bi3P8O29,mp-26327,Cc,3.4518099031739986,0.05760831230524932,4.5439,0.5703439,False,True
3728,Li7Mn4CoO12,mp-1175164,P-1,3.9786503739589354,0.06243510927083129,0.21120000000000028,2.982965,False,True
3729,Li9Mn2Co5O16,mp-1175747,P-1,4.112352786503865,0.12080966875000065,0.021300000000000097,2.61799518,False,True
3730,Li9Co7O16,mp-1175521,P-1,4.283568871034107,0.07357331875000028,0.3561000000000001,2.83176365,False,True
3731,Li3CrSiCO7,mp-774236,P2_1/m,2.7643968116485347,0.03747440365385035,2.8655,1.50775551,False,True
3732,SrLi4NiO4,mp-775913,P2_1/c,3.5459843665304174,0.09594132325000082,2.6467,1.65379323,False,True
3733,Li4Mn3O7,mp-1174348,P-1,3.885779524105826,0.04029926857142829,0.7911999999999999,2.65963818,False,True
3734,Li6V3P8O29,mp-772642,P1,2.5856112398953175,0.022336594193832937,0.9331999999999999,0.76426275,False,True
3735,Li7V3P8O29,mp-1176857,Cc,2.5815329885488505,0.02011205535017524,0.8939999999999999,1.67560069,False,True
3736,Sr3Li6Ta2O11,mp-1208758,Pmma,5.284153316540359,0.0,4.1255999999999995,5.59280718,False,True
3737,Li5NiO3F,mp-758448,C2/m,2.7087594288957297,0.09542567899999987,0.9598,2.12761278,False,True
3738,Li4Mn(OF)2,mp-753522,P2_1/c,2.753804215079198,0.09188626018518598,0.9747000000000003,2.58151992,False,True
3739,Li2MnO2F,mp-759973,C2/c,3.52990764662003,0.08921847041666187,0.7483,2.11263782,False,True
3740,Li2TiO3,mp-760017,P-1,3.4130154192688678,0.15581225861111836,1.4913000000000003,2.54663851,False,True
3741,Li3V2(OF)3,mp-1280055,Cm,3.097125524886423,0.08432724193181773,0.6251,2.17648755,False,True
3742,Li9Mn2Co5O16,mp-1176043,P1,4.096334780341931,0.14263979812500072,0.0,2.30920393,False,True
3743,Li9Co7O16,mp-1175381,P-1,4.807135834577936,0.010369227500000022,0.44819999999999993,3.02416499,True,True
3744,Li4Fe(PO4)2,mp-1273431,P-1,2.8605735298495194,0.0518061721666605,4.5179,1.661111,False,True
3745,Li9Mn2Co5O16,mp-1175902,P1,4.163281729903349,0.09067197437500063,0.4791999999999996,2.36748548,False,True
3746,Li9Mn2Co5O16,mp-1175407,P-1,4.2514602692296375,0.0773844068750007,0.6196000000000002,2.69520577,False,True
3747,Li9Mn2Co5O16,mp-1176173,P1,4.139065460995016,0.19502016000000033,0.6920999999999999,2.59309128,False,True
3748,Li4SeO5,mp-4426,C2/c,3.2516656057531375,0.0,2.4442,1.10700767,False,True
3749,NaLi2FePCO7,mp-772718,P1,2.848496053949057,0.041406690961540704,3.8463000000000003,1.84160992,False,True
3750,Li2VSi7O16,mp-1344597,P1,2.5258426858212695,5.427318121105748,0.0,2.87913657,False,True
3751,Li9Mn2Co5O16,mp-1176200,P1,4.15763860392303,0.10517035625000037,0.1019000000000001,2.63609402,False,True
3752,Li2CdSiO4,mp-557293,Pnma,3.932481636125747,0.0,2.8338,0.7488881,False,True
3753,Li2Fe(Si2O5)3,mp-757348,P-1,2.634746097559166,0.09578394357638675,0.2845000000000001,1.25730582,False,True
3754,Li2V(CO3)2,mp-1571048,Fdd2,2.3431130936585736,0.082917301448866,2.6758,1.89936115,False,True
3755,Li2BiP3O10,mp-759915,P2_1/m,3.382444276634874,0.07021124239583276,2.5981,0.65479513,False,True
3756,Li4CrP2O9,mp-849954,P2/c,2.7289063092443295,0.05552214942856448,0.5763,1.1041489,False,True
3757,Li5Mn2CoO8,mp-1174357,P2/m,3.8053510332041918,0.15644617937500005,0.0,2.4787762,False,True
3758,Li8Ni(O2F)2,mp-753488,P-1,2.6297612761699996,0.10238686300000044,2.9593,0.8061963,False,True
3759,Li9Mn7O16,mp-1100485,C2/m,3.9155633065475945,0.04381732359374979,1.0529000000000002,3.85685379,False,True
3760,Li3Mn2(CO5)2,mp-758407,Pmc2_1,3.20116807497856,0.08539648812500111,0.0,0.97203725,False,True
3761,Li7Mn(BO3)3,mp-1222860,P-1,2.3164807386525013,0.003470126874995927,3.5681000000000003,4.26652109,False,True
3762,Li7Mn2(CoO4)3,mp-1175045,P1,4.059993427944834,0.10955822041666696,0.0,2.72791824,False,True
3763,Li2VOF4,mp-765622,Pna2_1,2.759444891713689,0.062130823437500204,2.2391,-0.59176918,False,True
3764,Li4NbO4,mp-755298,I4/m,3.0767388032765837,0.08824721006944447,0.0,1.0105706,False,True
3765,Li7Mn2(CoO4)3,mp-1174578,C2/m,3.9937266783345913,0.10164919416666773,0.0,2.40624812,False,True
3766,Li3Mo(PO4)2,mp-26501,P2_1/c,3.4476340578472517,0.028524499464270825,1.3146000000000004,4.43716313,False,True
3767,Li4FeO3F,mp-1346483,P1,2.6086337835771376,1.2226111337499956,0.07979999999999987,1.16821898,False,True
3768,Li2V(PO3)5,mp-705334,Pc,2.3698140500108242,0.03753638996376729,1.8843,0.2778867,False,True
3769,Li2VPO5,mp-1147744,P-1,3.135550304771103,0.08129849245371545,1.4956999999999998,3.25419586,False,True
3770,Li7Mn2(CoO4)3,mp-1175088,P1,4.027279549109041,0.09647412125000088,0.0,3.09337291,False,True
3771,Li9Co7O16,mp-1175383,C2/m,4.25957966754213,0.06110819500000009,0.0,1.95371897,False,True
3772,Li3FeSiO5,mp-772106,P-1,3.5751968892167647,0.08313943475000052,1.8956999999999997,3.32574484,False,True
3773,Li4Fe2C4SO16,mp-781611,Fddd,2.56283882247661,0.06883855842592634,1.5539,0.46877187,True,True
3774,Li6Mn2OF11,mp-802225,P1,3.0269556099538746,1.5059072868958374,0.0,0.60274222,False,True
3775,Li3Fe(PO4)2,mp-859109,P-3,2.9021852235973395,0.06463824755952174,2.2931,1.33657481,False,True
3776,Li3Co2(SiO4)2,mp-753099,P1,3.0881794762865535,0.05175540666666567,0.3763000000000001,1.89643758,False,True
3777,Li4VO3F2,mp-758786,C2/c,2.5834965739476106,0.09395281724999904,1.3049,1.26836046,False,True
3778,Li5Co3O8,mp-1395802,P-1,3.9869481928275046,1.1077488443749974,0.0,2.57688038,False,True
3779,Li2CrP3O10,mp-756990,C2/c,2.6980456354921043,0.0720351155729162,2.6484,0.7978768,False,True
3780,Li2CrSi4O11,mp-757933,C2/c,2.853767064644876,0.08633961373456867,0.6668000000000001,2.02077737,False,True
3781,Li3Bi2(PO4)3,mp-759381,C2/m,4.758580146928201,0.07055121149999977,3.1674999999999995,2.68226292,False,True
3782,Li3Mn2P2(CO7)2,mp-756199,P1,2.7588266750184154,0.03504489119560805,0.0,0.81606036,False,True
3783,Li5Cu(HO2)2,mp-769763,Pnma,2.455684034984577,0.03913628083333354,2.4666,0.90770994,True,True
3784,Li7V(O2F)2,mp-753379,P1,2.5191474883858893,0.09385702142857255,0.6600000000000001,2.15711947,False,True
3785,Li9Mn2Co5O16,mp-1176105,P1,4.1225212670857605,0.12833235656250075,0.0,2.57092417,False,True
3786,Li2VOF5,mp-760326,Pc,2.853884892842377,0.025156613009261974,2.7157999999999998,-2.27204394,False,True
3787,Li7Mn2(CoO4)3,mp-1174972,P1,4.081050770038673,0.07567170958333325,0.5584000000000002,2.83273526,False,True
3788,Li9Co7O16,mp-1175515,C2/m,4.224102615693652,0.14650551687500002,0.0,2.53003051,False,True
3789,Li2MgGeO4,mp-1222820,Pna2_1,3.1298521766678102,0.0027308915624999486,3.8882999999999996,3.9615745,False,True
3790,Li9Fe5(SiO8)2,mp-767668,P2/m,3.8055611443723922,0.06126178210937727,1.6460999999999997,3.1687389,False,True
3791,Li7Mn4CoO12,mp-1175254,P1,3.973113323896434,0.07943275510416559,0.021899999999999586,2.90853656,True,True
3792,Li7Mn3P3(CO7)3,mp-1176894,P2_1/m,2.7054269340359967,0.03769367486485997,0.3777999999999999,1.67286602,False,True
3793,Li7Mn(O2F)2,mp-766227,P1,2.528048431009317,0.28500521285714253,2.3179999999999996,0.41484694,False,True
3794,Li4VP2(O4F)2,mp-782668,Pc,2.7208595855252975,0.02447468151959331,1.5804999999999998,0.80284748,True,True
3795,Li7Mn4CoO12,mp-1667122,P1,3.9834431374160255,0.026207096145832054,0.4569000000000001,3.59236067,False,True
3796,Li7Mn5O12,mp-1639283,P-1,3.854583490087644,0.03135201958333411,0.8968000000000003,3.54336809,False,True
3797,Li3Mn(CO3)3,mp-758341,Ama2,2.42771282406895,0.058859523281251214,0.6702,0.28214149,False,True
3798,Li9Mn2Co5O16,mp-1175604,P1,4.254254784403698,0.06964866250000057,0.5602999999999998,2.79407737,False,True
3799,Li5Mn4O8,mp-754396,Cmc2_1,3.854995709527155,0.05453424392156858,0.0,3.38567036,False,True
3800,Li3CrO4,mp-754470,Cmmm,3.3069743038793646,0.0840880959375001,0.7050000000000001,1.76601509,False,True
3801,Li2NiP2O7,mp-753293,C2/c,2.9011649956591095,0.05501548430555303,2.3814,1.40797132,False,True
3802,Li4Fe3O8,mp-771986,R-3m,3.7513411946586963,0.09181102754762005,0.1331,1.63939164,False,True
3803,Li2CuPO4,mp-778949,P1,3.3742532956600084,0.06533676406250066,0.6029999999999998,4.2008448,False,True
3804,Li3Mn(PO4)2,mp-801735,P-1,3.042121126277286,2.2060156171429073,0.0,3.42933888,False,True
3805,Li7Mn4CoO12,mp-1175160,P-1,4.027325621350671,0.038594443229165165,0.7075,3.61369277,False,True
3806,Li9Mn2Co5O16,mp-1175872,P1,4.186530583887592,0.07488215812500076,1.0069000000000004,2.20101022,False,True
3807,Li2FeSiO5,mp-1303469,Ibca,3.141196338168781,0.09572544787036641,0.0,1.5095045,False,True
3808,Li9Mn2Co5O16,mp-1100759,Cm,4.110996141127822,0.1266240615625005,0.2400000000000002,2.56149574,False,True
3809,Li3Mn2O5,mp-1174008,P-1,3.811789775191833,0.05021095649999996,0.9436999999999998,2.45340097,False,True
3810,Li12V3FeP4(CO7)4,mp-766535,Pm,2.7119242348946826,0.06728510671836396,2.3246,5.97272878,True,True
3811,Li4MnCo2O7,mp-1174602,P1,4.134457150972385,0.08844576928571346,0.8870999999999998,2.36738435,False,True
3812,Li3MnSi2O7,mp-780089,Pnma,2.8948099088562835,0.06806428580848678,1.2004000000000001,2.25590817,False,True
3813,Li6V3P8O29,mp-1176919,P1,2.5659586616263566,0.02244809941122483,1.4247999999999998,0.54991681,False,True
3814,Li4CoO4,mp-759349,Pc,2.546643664064454,0.0877024011111116,0.0,0.18504704,False,True
3815,Li9Mn2Co5O16,mp-1176224,P1,4.2653231212347205,0.08561236500000025,0.3386999999999998,3.13482554,False,True
3816,Li7Mn2(CoO4)3,mp-1175207,P3m1,3.9889080861080815,0.2699249887499997,0.0,3.00434474,False,True
3817,NaLi5Mn2P2(CO7)2,mp-772615,P2_1,2.755641319627998,0.04970788416666139,3.6214000000000004,2.1684645,False,True
3818,Li7Mn4CoO12,mp-1175125,P-1,3.9859652387337303,0.02997662531249823,0.5983,2.83137731,False,True
3819,Li2Cd(PO3)4,mp-559715,Pnma,3.089146015779801,0.0055148533991200566,4.4478,0.46167306,True,True
3820,Li9Mn2Co5O16,mp-1176059,P1,4.186875623627639,0.10835581000000083,0.0,2.70441976,False,True
3821,Li9Mn5O12,mp-1176815,C2/c,3.5405520407963156,0.07813993519230422,1.3548,1.94506426,False,True
3822,Li9Mn7O16,mp-1100547,P-1,3.93254897598762,0.03273803390624952,0.0,3.05602466,False,True
3823,Li4Mn3O7,mp-1174287,P-1,3.9243125236524343,0.02993917928571399,0.8866999999999998,2.86451501,False,True
3824,Li3VCrP2(HO5)2,mp-1374975,P1,3.0119868232031677,2.523521015038984,0.0,3.14666907,False,True
3825,Li9Mn2Co5O16,mp-1100650,Cm,4.141554629146999,0.12749304437500086,0.0,2.78228836,False,True
3826,Li3CrBO5,mp-768521,Pna2_1,2.903744386291458,0.10186396819444621,1.5616000000000003,1.90034353,False,True
3827,Li4Mn3O7,mp-1174312,P-1,3.8729699166987723,0.028373041428571,0.6667000000000001,2.85278769,False,True
3828,Li9Mn2Co5O16,mp-1100627,Cm,4.169905914820862,0.11988397312500076,0.33409999999999984,2.82478902,False,True
3829,Li2CuCO4,mp-757660,P2_1/c,2.7609192990177625,0.10485288062499976,0.06919999999999993,1.09563161,False,True
3830,Li3V2(PO4)3,mp-757321,P2_1/c,2.979870013821963,0.0030450123750274116,2.0794,2.07342508,False,True
3831,Li7Mn4CoO12,mp-1175214,P1,4.003426491507245,0.031789854687499286,0.7606000000000002,3.72650671,False,True
3832,Li5VO4F,mp-759609,Cm,2.6613828536628805,0.04551652431818187,1.5456999999999999,1.99330254,False,True
3833,Li2FeP2O7,mp-504122,C2/c,2.8143194561952867,0.03854793951385904,4.2871999999999995,5.18734516,True,True
3834,Li9Mn2Co5O16,mp-1100640,Cm,4.155630515691088,0.21960616781250053,0.0,2.86564332,False,True
3835,Li3Cr2P5O18,mp-935737,P-1,3.034886193229503,3.167267610372022,0.0,3.23920537,False,True
3836,Li5Fe(CO3)4,mp-765153,P2_1/c,2.435746809573013,0.053070547272730195,1.9253,0.84235677,False,True
3837,Li6Fe2C4SO16,mp-770599,Fd-3,2.7318722839464677,0.05033011025862422,0.0,3.30834234,False,True
3838,Li3MnV(PO4)3,mp-1177608,I4_1/a,3.314176570186837,0.07244503306249683,0.0,4.27947185,False,True
3839,Li3V2(PO4)3,mp-1177570,C2/c,2.620775708891788,0.09347930037502739,2.0839999999999996,3.33309217,False,True
3840,Li9Mn2Co5O16,mp-1100696,P2/m,4.171179980293216,0.07167240531250041,1.3217000000000003,3.54303048,False,True
3841,Li7Fe5O16,mp-1176883,P1,3.4409850143658227,0.14881791019132695,0.0,0.76758139,False,True
3842,Li6VCoP2(CO7)2,mp-757109,Pm,2.7729956759669516,0.05599715514422421,0.6558999999999999,3.54962797,False,True
3843,Li7Mn5O12,mp-1175490,P-3m1,3.728223175711599,0.21143972979166747,0.0,2.74022368,False,True
3844,Li3FeO3,mp-1663732,Cmmm,2.852443970786058,0.07802854446428764,1.5152,1.66467132,False,True
3845,Li2MnSiO4,mp-774639,Pna2_1,2.9945009569456853,0.011427185937499473,2.8799,2.05079689,False,True
3846,Li6V3P8O29,mp-1176904,C2,2.5732936674604794,0.020774899519921064,0.0,1.85187608,False,True
3847,Li2Cr(PO4)2,mp-540287,P2_1,3.043755665735595,0.07131347180403136,0.0,1.54372423,False,True
3848,Li2CoSiO4,mp-764957,Pna2_1,3.2260783638954855,0.015476484687493297,2.7567,2.35767322,False,True
3849,Li2Cr(SiO3)2,mp-753193,Fdd2,2.724860271676517,0.24296361712121595,1.2895000000000003,3.1398777,False,True
3850,Li7Mn5O12,mp-1175358,P2/m,3.8200436120322276,0.07821114104166682,0.0,2.3851132,False,True
3851,Li3MnV(PO4)3,mp-777545,Ia-3,3.2659611878764245,0.08551463206249821,0.15790000000000015,3.58000923,True,True
3852,Li7Co5O12,mp-1174340,C2/m,4.313497204770793,0.13666245041666425,0.0,2.79268567,False,True
3853,Li4Co2(PO4)3,mp-780762,Pbcn,3.0144238456357964,0.05177109598213825,0.0040000000000000036,1.45070966,True,True
3854,Li7Fe5O12,mp-1176882,C2,3.883343106119066,0.030757468020826906,0.0,2.06733234,False,True
3855,Li7Mn2(CoO4)3,mp-1174555,P-1,4.070328791562806,0.07430722999999961,0.5972,3.01102472,False,True
3856,Li2Fe(BO3)2,mp-776547,P2_1/c,2.8998514207862325,0.13431232035605678,0.0,1.19848924,False,True
3857,Li9Mn2Co5O16,mp-1372681,P1,4.200614696945231,1.0996820893750003,0.0,3.31989172,False,True
3858,Li2VP2O7,mp-1573955,P-1,2.85391239648568,0.04453120917533937,2.9640000000000004,3.33065637,False,True
3859,Li3MnPCO7,mp-763832,P-1,2.613466878804941,0.04880427384615427,3.5256000000000003,1.61369717,False,True
3860,Li2PtO6,mp-1180661,C2/m,4.950478494655321,0.34426201896296327,0.0504,1.26098139,False,True
3861,Li9Mn2Co5O16,mp-1175784,P1,4.304965604791112,0.05928451687500047,0.9371999999999998,3.53857225,False,True
3862,Li2AlVO4,mp-754923,Pc,2.891889211046371,0.08207811156249978,2.1378999999999997,2.82831356,False,True