,formula,mp-id,crystal system,density,energy above hull,band gap,efermi,is gap direct,theoretical
3093,Li9Mn7O16,mp-1100488,C2/m,3.9042065559638064,0.045589954218749895,0.0,3.04837818,False,True
3094,Li3Fe2(SiO4)2,mp-764102,P1,2.910624237980786,0.05928698133334098,0.5410999999999997,2.35096247,False,True
3095,Li2MnO2F,mp-760112,Pnma,3.6837481354129853,0.04816267541666264,0.0,2.17506916,False,True
3096,Li7Mn2(CoO4)3,mp-1174895,P-1,3.990207186037989,0.13050132041666718,0.053400000000000336,2.62886695,False,True
3097,Li7Mn4CoO12,mp-1175276,P1,3.910938049574883,0.09247023052083225,0.0,2.42399893,False,True
3098,Li6Mn3Sn(PO4)6,mp-776373,P1,3.1221562807364234,0.0655817531249765,0.0,2.34088748,False,True
3099,Li3VPCO7,mp-766626,P1,2.6912730466163532,0.08254675307692416,2.1837999999999997,5.8023665,False,True
3100,Li4CrP2(O4F)2,mp-759047,P1,2.7066193788968174,0.06322240539916013,3.5923000000000003,0.98033415,True,True
3101,Li2FePCO7,mp-753770,P-1,2.7600256831872807,0.006097024062518663,1.911,0.82557738,False,True
3102,Li3Cr2(PO4)3,mp-697753,Cc,2.9282878451241703,0.024193213750003828,1.4381,2.78979721,True,True
3103,Li10Ti2Mn3Co3O16,mp-779764,P1,4.056570470916006,0.1234777385661765,0.0,3.87116387,False,True
3104,Li9Mn2Co5O16,mp-1176314,C2/m,4.186452288532165,0.06902302281250083,1.3843,3.56064972,False,True
3105,Li2Cu(PO3)4,mp-759278,P2_1/c,2.592032414071833,0.09238624679822482,0.0,1.66869336,False,True
3106,Li6Ti2S6O,mp-770212,P2_1/c,2.0071943784899777,0.05070710659259081,1.9745000000000001,1.16606522,False,True
3107,Li4MnCo2O7,mp-1174704,P1,4.116962184871545,0.12029458571428453,0.3104,2.67696639,False,True
3108,Li2FePO5,mp-761481,P4/nmm,3.2294330527927446,0.06876634333333342,2.3612,2.34078167,False,True
3109,Li9Mn2Co5O16,mp-1175862,P1,4.204084551995701,0.1175225387500003,0.0,2.66910827,False,True
3110,Li2P4WO13,mp-757625,P-1,3.202102612583125,0.04966485166666068,2.9840999999999998,0.98658608,True,True
3111,Li9Mn2Co5O16,mp-1176280,P2,4.24442235692811,0.05529002562500018,1.4158,3.68792104,False,True
3112,Li2VO2F,mp-758805,C2/m,3.4547354886551895,0.04978241166666297,0.9741,3.14385314,False,True
3113,Li3FeO2F,mp-761233,Pnnm,2.767115188003547,0.06465239857142535,2.4918,0.93164929,False,True
3114,Li4MnCo2O7,mp-1174782,C2,4.194487372935518,0.09094712178571296,0.0,2.52373622,False,True
3115,Li3VSiO5,mp-766229,Pna2_1,2.7316065040959536,0.04964644374999949,1.6548999999999996,2.45747595,False,True
3116,Li9Mn7O16,mp-1100508,P-1,3.9283473970591705,0.04290124359375014,0.6238000000000001,2.81743304,False,True
3117,Li6V3P8O29,mp-760201,P1,2.5852828160052277,0.021889320172094884,1.3188,0.64333871,True,True
3118,Li6MnV3(PO4)6,mp-827710,C2/c,3.2973593933636716,0.0638817302656074,0.0,4.52039438,False,True
3119,Li5V3CrO8,mp-764013,Cc,3.939246174481527,0.08847153764705773,0.4548999999999994,5.24408019,True,True
3120,Li3V(SiO3)3,mp-766406,Pmn2_1,2.4662202128085826,0.09564067675781285,1.9627,1.77100423,True,True
3121,Li6MnSn3(PO4)6,mp-771360,P1,3.409861135852173,0.06807077404166062,2.3216,2.79285459,False,True
3122,Li2VSiO5,mp-766036,Pmc2_1,3.0214435066881897,0.029706001944443727,1.9540999999999995,2.35650649,False,True
3123,Li5AuO4,mp-780960,C2/c,4.589449893260983,2.8271200234999996,0.0,1.55317403,False,True
3124,Rb2Li14Pb3O14,mp-504810,Immm,4.740052028277017,0.0,1.9342000000000001,1.12153959,False,True
3125,Li5Cu(PO4)2,mp-773438,P1,2.9034619113927764,0.03166959890625076,1.6448999999999998,3.89613344,False,True
3126,Li2FeBO4,mp-779250,Pca2_1,3.1798655946247356,0.09011881593750015,1.9074,1.71184848,False,True
3127,Li3ZrO3,mp-772899,P4_2/mnm,3.2660645151571335,0.0751128034285724,0.0,2.52282692,False,True
3128,Li5V3P8O29,mp-1177055,P1,2.5432586441781515,0.03791229820370301,0.0,1.4829117,False,True
3129,Li3Ti(BO3)2,mp-770209,P-1,2.4654862898204635,0.10231718605769213,0.14990000000000014,3.98792607,False,True
3130,Li5(CoO2)4,mp-760135,P1,4.700843376176904,0.09501598452205595,0.23539999999999983,3.52402631,False,True
3131,Li3FePCO7,mp-766685,P2_1/c,2.859450184409838,0.061794896153847034,4.2364,1.526895,True,True
3132,Li9Mn7O16,mp-1100494,C2/m,3.9067123577378506,0.03953632234374993,0.8948,3.78603184,False,True
3133,Li7Mn5O12,mp-1175308,P-1,3.8783712539157644,0.02586808208333302,0.9864999999999999,3.61319436,False,True
3134,Li4(CuO2)3,mp-752615,Cm,3.6430117863717104,0.027734560000004294,0.0,1.8592375,False,True
3135,Li5CrO4,mp-772671,Pbca,2.524107261685392,0.10205060937500221,1.305,1.74364033,False,True
3136,Li9Mn2Co5O16,mp-1175461,P-1,4.192337617342248,0.07086009031250029,0.589,2.46596671,False,True
3137,Li7Mn2(CoO4)3,mp-1174986,Cm,4.06108194140751,0.13264576583333376,0.0,2.74988472,False,True
3138,Li3MnCoO5,mp-1174278,C2/m,3.875490176991531,0.10959773299998954,0.0,2.73339328,False,True
3139,Li3MnCoO5,mp-1174022,P1,3.994833331973224,0.06693978799998934,1.0589,3.34635816,False,True
3140,Li4V3P8O29,mp-1177205,P1,2.5254847054680933,0.052891845151513905,1.0553000000000001,0.14141922,False,True
3141,Li5NiOF5,mp-1273264,Cm,2.5511111714917076,0.07535411375000045,1.9918999999999998,0.09219982,False,True
3142,Li2MnP2O7,mp-1177905,P3,2.5588130774587206,0.07967318479166607,3.7203000000000004,1.05933103,True,True
3143,Li4TeO5,mp-661707,P-1,4.08075750480928,1.4698483935000004,0.0,4.69389379,False,True
3144,Li7Mn2(CoO4)3,mp-1175110,Pm,4.060717391171186,0.09695872333333355,0.08009999999999984,3.30625884,False,True
3145,Li4TiCrO6,mp-768438,P1,3.461402748498475,0.015535531249997625,1.2774999999999999,2.0411809,False,True
3146,Li4Mn3O7,mp-1174322,P-1,3.8796649549291486,0.05142008785714314,0.5731999999999999,2.79535303,False,True
3147,Li9Mn2Co5O16,mp-1100634,Cm,4.05223171469168,0.13217805312500008,0.0,2.4974968,False,True
3148,Li2Fe(PO4)2,mp-757095,P-3,2.7991022332677664,0.06555076687499817,0.0,0.59568014,False,True
3149,Li3CoOF3,mp-759806,P4/mmm,3.510922048592242,0.05734824249999981,0.10860000000000003,2.45792383,False,True
3150,Li32Mn3Cr13O48,mp-777886,P1,3.621798531089652,0.028874401041667497,0.9782000000000002,2.31856387,False,True
3151,Li7VGeO8,mp-769539,P1,2.6797002932255447,0.029984217647058387,3.2791,-0.36713901,True,True
3152,Li9Mn2Co5O16,mp-1176263,P1,4.133112645950384,0.19346123531250026,0.0,2.57305898,False,True
3153,Li7Mn2(CoO4)3,mp-1174571,C2/m,3.9669424614760906,0.20894344708333445,0.0,2.28358471,False,True
3154,Li4Cr2C4SO16,mp-771912,Fddd,2.5836707279470783,0.07017061379629741,2.0016,0.67654536,True,True
3155,Li2MnO3,mp-1173923,P-3m1,3.424369354136374,0.32765144000000035,0.0,2.03421915,False,True
3156,Li2NbO3,mp-1222640,P-3m1,3.9694455277045644,0.42547585812500177,0.0,2.3557703,False,True
3157,Li7Cr2P7O24,mp-772556,P2/c,2.722008804353001,0.07016732935417469,2.7108999999999996,1.45113728,False,True
3158,Li6VO5F,mp-765511,P1,2.1843253498974535,0.0702028811538451,1.9527999999999999,0.26194781,False,True
3159,Li4MnCo2O7,mp-1174732,P1,4.1015946501566285,0.1086015835714278,0.06729999999999992,2.68877781,False,True
3160,Li9Si2NiO10,mp-1176868,P1,2.3551016766200106,0.09276646696969149,0.0,0.27005259,False,True
3161,Li6MnV3(PO4)6,mp-777835,P2_1,2.8997265487226125,0.01662457651560878,0.5203000000000002,1.82307839,True,True
3162,Li9Mn2Co5O16,mp-1175642,C2,4.228601151053926,0.04863858781250041,1.5093,2.07837284,False,True
3163,Li7Mn2(CoO4)3,mp-1175093,Cm,4.078665473438318,0.10271321666666733,0.0,2.4863638,False,True
3164,Li10Cr3Fe3(NiO8)2,mp-775215,Cm,4.184958384331565,0.06663145073529098,1.2444000000000002,4.74773243,True,True
3165,Li4TeO5,mp-4804,P-1,4.333848923870652,0.0,2.7111,2.43562062,False,True
3166,Li7Mn2(CoO4)3,mp-1175124,Pm,4.024655520453404,0.13621104625000058,0.0,2.30411605,False,True
3167,Li9Mn2Co5O16,mp-1176315,P2,4.184710070777519,0.09554520593750038,0.7057000000000002,3.28115162,False,True
3168,Li15Mn2O12,mp-758672,P1,2.6770475339175324,0.05632567224137919,0.0,0.52891981,False,True
3169,Li5Mn4O8,mp-1274955,P-1,3.8432140882249737,0.06316965450980305,0.0,3.5320852,False,True
3170,Li7Mn5O12,mp-1642624,P-1,3.8532761098840114,0.03210743500000035,0.8197999999999999,3.58795879,False,True
3171,Li3Fe2(PO4)3,mp-504385,P2/c,3.025188793580241,0.037384287375005876,2.5408,1.25873842,False,True
3172,Li7Mn2(CoO4)3,mp-1174935,P1,4.133372921473631,0.06300443750000095,0.9293,3.28509569,False,True
3173,Li9Mn2Co5O16,mp-1175755,C2,4.213696405486727,0.07247068406250001,0.4726999999999997,2.48035279,False,True
3174,Li47(CoO4)8,mp-1177487,P1,2.651730400051876,0.02293956169540401,0.8284,0.97335723,False,True
3175,Li3Co2P2(O4F)2,mp-759682,Pca2_1,3.2041543539253547,0.06161090735293673,0.0,1.81533793,False,True
3176,Li7Mn4CoO12,mp-1175210,P-1,3.8629244813177417,0.11726767260416526,0.0,2.2851676,False,True
3177,Li9Mn2Co5O16,mp-1175947,P1,4.153476627458735,0.0836564015625001,1.2826999999999997,3.40789715,False,True
3178,Li9Mn2Co5O16,mp-1175822,P1,4.191253426814376,0.06957993875000046,0.24960000000000004,2.80130343,False,True
3179,Li7Mn2(CoO4)3,mp-1175089,P2,4.1194986363464565,0.07833235458333387,0.7530999999999999,3.37406857,True,True
3180,Li4MnCo2O7,mp-1174583,P1,4.216949402592336,0.07312669571428376,0.8982000000000001,2.35858366,False,True
3181,Li2FeP2O7,mp-779056,P2_1,2.8067672534011456,0.004362179305525515,3.9628,1.90535565,True,True
3182,Li9Mn2Co5O16,mp-1175856,P-1,4.122236210999955,0.13409112281250035,0.0,2.52070271,False,True
3183,Li7Mn4CoO12,mp-1175294,Cm,3.9542914864268766,0.06143301802083201,0.7479,3.65942717,False,True
3184,Li10Ge(PO6)2,mp-632815,P1,2.557096924757111,0.06988341079999838,4.4932,0.45814008,False,True
3185,Li7Cr5O12,mp-757087,C2/m,3.847664625587071,0.03442912062500092,0.0,2.77961779,False,True
3186,Li3CrH12(CO3)6,mp-805888,P-1,1.772900455926348,1.6407526092187457,0.0,0.17732625,False,True
3187,Li4MnCo2O7,mp-1174870,Cm,4.103436092694467,0.12431425571428445,0.0,2.74838775,False,True
3188,Li2MnP2O7,mp-31953,P1,2.8196442373948916,0.03752000791666621,3.8564,1.82776106,False,True
3189,Li2FeO2,mp-1272755,P2_1/c,3.6609738948454003,0.04433187999999966,3.0405999999999995,4.98550049,False,True
3190,Li6FeSn3(PO4)6,mp-1176997,P1,3.4257574142360703,0.07119833572916612,2.4206999999999996,2.79100462,False,True
3191,Li10Ti3Mn5O16,mp-761137,P1,3.7147878801407215,0.10373967749999924,0.8626999999999998,3.60959414,False,True
3192,Li12Mn3CrP4(CO7)4,mp-766531,Pm,2.7150197526752,0.061752428852166474,2.3728,2.87061045,False,True
3193,Li9Mn2Co5O16,mp-1175432,P-1,4.281957879244986,0.0619500415625005,0.5879999999999996,2.71413815,False,True
3194,Li2Nb(PO4)2,mp-760377,P-3,3.018378269861188,0.10252203817308114,0.0,3.30645607,False,True
3195,Li2AlVO4,mp-755737,Pmn2_1,2.924794270591599,0.08908911906249983,2.1881,2.87452915,False,True
3196,Li8TeO6,mp-760690,R-3,3.201119093309804,0.09384664049999891,2.3785999999999996,2.91819636,False,True
3197,Li9Mn2Co5O16,mp-1176189,P1,4.1455678877328825,0.10369180687500013,0.12239999999999984,2.73839665,False,True
3198,Li3Cr(PO4)2,mp-1177734,P2_1/c,2.7556875304875037,0.06014255705356675,0.0,4.26354969,False,True
3199,Li2SbPCO7,mp-1177866,P2_1/m,3.0502262934786155,0.030352966111111712,4.0421000000000005,1.45002369,False,True
3200,Li9Mn5(SiO8)2,mp-859122,P-1,3.7058502758785172,0.07138917499999575,1.1513000000000004,3.37934101,False,True
3201,Li24Ti11CrO36,mp-779775,C2,3.3594493575314606,0.0035284099652796996,1.0897999999999999,2.03326548,False,True
3202,Li2CuPO4,mp-779643,P1,3.385000006402994,0.06625640375000064,1.327,4.17417862,False,True
3203,Li7Co5O12,mp-1174315,P-1,4.194494092254796,0.06089557791666422,0.02069999999999994,1.93942703,False,True
3204,Li5Mn2CoO8,mp-1292609,P-1,3.8890651933816565,0.06931347750000061,0.4689000000000001,2.56122677,False,True
3205,Li9Mn7O16,mp-1100501,P-1,3.935054111032638,0.043018460156249994,0.5887000000000002,2.89124402,False,True
3206,Li3Co2O5,mp-1173982,P-1,4.023781007633067,0.09572747200000009,0.30580000000000007,1.97671889,False,True
3207,Li6Cr3Cu(PO4)6,mp-774262,P1,3.036364612285933,0.2767366315156252,2.231,1.61145767,False,True
3208,Li2FeSiO4,mp-759942,P2_1,3.045068929649121,0.007311315625000425,2.8849,1.97088509,False,True
3209,Li3Mo2(PO4)3,mp-26105,P2_1/c,3.286221264771284,0.004713364374972606,0.0,4.32175667,False,True
3210,Li9Mn2Co5O16,mp-1100644,Cm,4.147657688831279,0.10044353875000045,0.04349999999999987,2.73935032,False,True
3211,Li2FeO3,mp-849695,C2/m,3.8170172642799622,0.057792488333333836,0.0,2.42536135,False,True
3212,Li7Mn2(CoO4)3,mp-1174951,P1,4.063711564912989,0.0733067712500004,0.5341,2.99220068,False,True
3213,Li4MnCo2O7,mp-1174744,P1,4.092759950180774,0.14407399357142747,0.0,2.70769974,False,True
3214,Li4MnCo2O7,mp-1174806,Cm,4.098161130903024,0.07649785607142778,0.6152000000000002,3.22759921,False,True
3215,Li15Mn8P8(O4F)8,mp-759732,P1,3.0968078059714528,0.03249790679577291,0.22030000000000016,2.13630728,False,True
3216,Li7BiO6,mp-38487,P1,4.402726172360108,0.0,1.8635,0.9765778,False,True
3217,Li9V4(PO4)6,mp-760985,P1,2.8054135983413664,0.046659088488374856,0.009199999999999875,3.38655693,True,True
3218,Li3MnBAsO7,mp-771037,P2_1/m,3.089927924448191,0.09126274311813543,0.9886999999999999,1.62021029,False,True
3219,Li3Mn2(PO4)3,mp-26039,P2_1/c,2.9896812455815924,0.0028933422500490025,0.9717,1.32088999,False,True
3220,Li10Cu(SiO5)2,mp-1266446,P-1,2.4590633796715293,0.05307805244565067,0.3449,1.16935819,False,True
3221,Li9Mn2Co5O16,mp-1100574,Pm,4.153149312351443,0.10599260843750002,0.3669000000000002,2.92348631,False,True
3222,Li9Mn2Co5O16,mp-1176228,P1,4.097059043572836,0.12928452093750042,0.0,2.82499468,False,True
3223,Li2Fe(BO3)2,mp-1177982,R-3,3.0617636933401315,0.06614733944696649,0.0,1.08492509,False,True
3224,Li2MnBO4,mp-771018,P2_1/c,2.6488956070846763,0.09756178468749965,0.6277000000000001,0.5546743,False,True
3225,Li2MnO2F,mp-752464,Cc,3.564178175718756,0.09650042583332841,0.8740000000000001,2.07327292,False,True
3226,Li3SbN3(O3F)3,mp-769129,Cmc2_1,2.480008431736624,0.10041710140350979,3.0075,-0.61680105,False,True
3227,Li6MnV3(PO4)6,mp-777761,R3,2.866073698325997,0.024978624140608474,0.0,2.55819805,False,True
3228,Li4V3O8,mp-1302394,P-1,3.358351309122358,0.07067346391667417,1.4290000000000003,1.99458843,False,True
3229,Li4MnCo2O7,mp-1174756,P1,4.1008788677075785,0.11113176499999877,0.0,2.72373002,False,True
3230,Li16(CoO4)3,mp-543091,P1,2.654864941688811,0.024769028629040513,0.0,1.46307667,False,True
3231,Li2V(OF)2,mp-1280578,C2/c,3.0419537232530542,0.058052366785717346,1.9109000000000003,0.52001408,False,True
3232,Li4FeO3F,mp-755682,P-1,2.5813968513369736,0.10615415652777394,2.4281,0.56784225,False,True
3233,Li2FeCSO7,mp-1579553,P2_1/m,2.565667507327096,0.06619488083333902,4.3530999999999995,0.59257133,False,True
3234,Li2FePCO7,mp-768640,P2_1/c,2.7238677235071993,0.02157982031251926,2.4473,3.041017,False,True
3235,Li7Mn2(CoO4)3,mp-1174973,P1,4.081555874934529,0.06667544208333354,0.9201000000000001,3.23426493,False,True
3236,Li4V3(CO3)6,mp-758087,P-1,2.868841476795874,0.05498255406250063,0.0,3.37152567,False,True
3237,Li6MnNiP2(CO7)2,mp-757236,Pm,2.8066592611226433,0.04649228461538524,2.3725,2.56267239,False,True
3238,Li9Mn2Co5O16,mp-1176009,P1,4.170191417541412,0.08474857468750052,1.2046000000000001,2.19366627,False,True
3239,Li5Cr3(PO4)4,mp-1222580,P1,3.0417007406193237,0.0024058910156314894,2.1681999999999997,2.5820755,False,True
3240,Li7Co5O12,mp-1174431,P2/m,4.251757228017254,0.05542352333333067,0.2528999999999999,2.97231667,False,True
3241,Li3Cr(PO4)2,mp-31723,P2_1/c,3.127566625414976,0.026246598749995798,2.6700000000000004,2.1512583,False,True
3242,Li3Ti2(PO4)3,mp-758287,C2/c,3.0374609419758807,0.0881634059833285,0.21499999999999986,4.91403193,False,True
3243,Li7Mn4CoO12,mp-1175246,P1,3.9619463204475363,0.04672474343749844,0.8252000000000002,3.66606694,False,True
3244,Li2MnP2O7,mp-695780,P-1,2.88532979993505,0.02034898187499934,4.2766,1.77113404,True,True
3245,Li3Mo(PO4)2,mp-26347,C2/m,3.4876662285753572,0.024750503392843015,3.7184000000000004,3.14289861,False,True
3246,Li10Ti3Co3(NiO8)2,mp-774315,P1,4.111233459137518,0.10323512904411825,0.5989000000000004,4.40941859,False,True
3247,Li7V4P9O32,mp-27087,P-42_1c,2.822997003396788,0.035870245929420896,1.9918,2.10553754,False,True
3248,Li2Ni(CO3)2,mp-766019,P1,2.6417122605109116,0.057637314090912106,3.1111,0.49124076,False,True
3249,Li11V6O5F19,mp-777521,P1,3.0108308727173436,0.0828567807012357,0.22750000000000004,2.44465125,True,True
3250,Li9Mn2Co5O16,mp-1176086,P1,4.20998743560421,0.09442685375000082,0.5973000000000002,3.21822133,False,True
3251,Li9Mn7O16,mp-1100518,P-1,3.9236776205841775,0.034434410156249484,0.0,3.09784726,False,True
3252,Li9Mn2Co5O16,mp-1175566,P-1,4.159055241295754,0.07075220281250072,1.5863,2.02581831,False,True
3253,Li4Co3O7,mp-1174222,C2/m,4.196327538866605,0.08357350035714006,0.0,2.03326117,False,True
3254,Li7Mn4CoO12,mp-1666595,P-1,3.96148032916002,0.06514961072916492,0.0,2.88321456,False,True
3255,Li3FePCO7,mp-771344,P2_1,2.7170050547479834,0.04582925942307803,3.6245000000000003,1.80268371,False,True
3256,Li9Mn2Co5O16,mp-1175955,P1,4.294627695817412,0.0804521837500003,0.6673999999999998,2.91330971,False,True
3257,Li3MnCoO5,mp-1306361,P1,4.009503396939483,0.0941056544999892,0.3703000000000003,2.93234487,False,True
3258,Li3MnCoO5,mp-1174234,Cm,3.942209317984808,0.10302554599998892,0.12700000000000022,2.7970893,True,True
3259,Li9Mn2Co5O16,mp-1100761,Pm,4.123027239272291,0.1406454906250003,0.0,2.58417224,False,True
3260,Li9Mn7O16,mp-1100523,P-1,3.9006203536592325,0.02880747890625024,0.8445999999999998,2.77912785,False,True
3261,Li3NiPCO7,mp-25446,P2_1/m,2.9153854779666526,0.03721470519231129,4.0127,1.62333941,False,True
3262,Li3Mo2(PO4)3,mp-26439,Cc,3.323713538788299,0.022121852499972228,3.8694,2.62424572,True,True
3263,Li3Ni2(CO3)4,mp-752720,P1,2.732080428399486,0.06555257550595339,0.018100000000000005,0.70206092,False,True
3264,Li9Mn7O16,mp-1100540,P-1,3.9328913961688574,0.025824501093749674,1.0164,3.77789485,False,True
3265,Li4V(PO3)6,mp-759426,P1,2.666442275999019,0.07291076902298155,2.8954999999999997,3.06754184,False,True
3266,Li3VPCO7,mp-766594,P2_1/c,2.76007719384121,0.08739040692307842,2.8331,6.01603261,True,True
3267,Li2NiP2O7,mp-26365,P2_1/c,3.011028014155412,0.025499805138887055,3.5606999999999998,1.43699369,False,True
3268,Li9Mn2Co5O16,mp-1175607,P-1,4.190024738528024,0.08291046281250036,0.16740000000000022,2.585357,False,True
3269,Li6V3P8O29,mp-772026,P1,2.59390845241,0.025947317346007637,1.0314,0.92687351,False,True
3270,Li5V3P8O29,mp-1177067,P1,2.521778338619783,0.03496697575925811,1.1198,0.24825495,False,True
3271,Li12MnFe3P4(CO7)4,mp-766510,Pm,2.7631297273819437,0.04821823701923034,3.378,5.81030288,False,True
3272,Li6(CoO2)5,mp-761027,P-1,3.2105397338470856,0.11292710580356946,0.0,1.55716871,False,True
3273,Li2Ni(PO3)4,mp-757640,P1,3.211057797537828,0.08396335337719574,2.9649999999999994,5.93105266,False,True
3274,Li4MnCo2O7,mp-1174701,P1,4.1341551378668955,0.1352996485714275,0.23270000000000035,2.72537182,False,True
3275,Li6Mn3CoO10,mp-1174809,P1,3.862318111816318,0.10037867087499741,0.24639999999999995,2.63539998,False,True
3276,Li6Mo2O7,mp-690581,Pma2,3.6544412649236264,0.030324082666665753,0.8755999999999999,3.04316682,False,True
3277,Li17(CoO4)4,mp-768424,Pm,2.588422962268361,0.08964750256756471,0.7742,0.46837293,False,True
3278,Li5NbO5,mp-770649,C2/m,3.088230200529213,0.008409855568179303,2.9243,0.54678702,False,True
3279,Li2CrPO6,mp-778669,Pna2_1,3.054583658969094,0.09176715725594864,0.8508,2.1598064,False,True
3280,Li4MnCo2O7,mp-1174844,Cm,4.110982920743416,0.1014403728571418,0.16569999999999974,3.13848925,False,True
3281,Li9Co7O16,mp-1175519,P-1,4.2837786320631155,0.06304088156250032,0.0,2.18395318,False,True
3282,Li9Mn2Co5O16,mp-1176202,P1,4.16819578582094,0.12462731125000026,0.0,2.61281751,False,True
3283,Li2Co(CO3)2,mp-759898,P2_1,2.3445120021736257,0.09975589090909409,2.0957000000000003,0.16187673,True,True
3284,Li9Mn2Co5O16,mp-1175595,P-1,4.207960518430696,0.09113599687500074,0.4925999999999999,2.6102087,False,True
3285,Li7(CoO3)2,mp-850281,P1,2.9171137332731347,0.08657018616666523,0.9001999999999999,1.33024612,True,True