,formula,mp-id,crystal system,density,energy above hull,band gap,efermi,is gap direct,theoretical
5018,Li2Bi(PO3)5,mp-759735,Cc,3.312541474954778,0.07689685844202909,4.2985999999999995,0.93816085,False,True
5019,Li2FeBO4,mp-752663,P2_1/c,2.728414247142364,0.07387373093749972,2.8278,0.35776351,False,True
5020,Li3Mo(PO3)8,mp-26319,C2,2.8132075981951936,0.04784638520833173,1.1831,1.00602568,False,True
5021,Li3FeSiCO7,mp-770822,P2_1/m,2.792322335783762,0.2144363832692191,2.1590999999999996,1.45337414,False,True
5022,Li3CoPCO7,mp-766817,P1,2.8827136280642844,0.06524091865384651,1.9682,1.68489119,False,True
5023,Li24Mn5Cr7O36,mp-768924,P1,3.6463923208288924,0.035795128333329096,1.0371000000000001,2.15449083,False,True
5024,Li6TiMn3(PO4)6,mp-757139,P1,2.867862977729646,0.06246001118750488,0.05600000000000005,1.87275577,False,True
5025,Li10Fe3Co3(NiO8)2,mp-774318,P1,4.491746006781043,0.127844673676468,0.7782999999999998,3.49111831,False,True
5026,Li3VFe(P2O7)2,mp-1177512,P1,2.817891928122335,0.00028829583333678244,0.005799999999999805,3.22199566,False,True
5027,Li3MnCoO5,mp-1174117,P-1,4.008098031319817,0.09233012199999013,0.0,3.56649806,False,True
5028,Li6Mn3Co(PO4)6,mp-1177025,P1,3.0222573753611743,0.05712157390623851,0.6188,1.58472161,False,True
5029,Li3CoO6,mp-1212378,Cmmm,0.18699368070999323,1.4584912494285716,0.0,-4.06235177,False,True
5030,Li6Cr3Sb(PO4)6,mp-758334,P1,3.1584438681306937,0.06380648881249762,1.5437000000000003,2.30334346,False,True
5031,Li5Co2Cu2(PO4)4,mp-764926,P1,3.55193115965066,0.06680044879310287,0.0,3.70745632,False,True
5032,Li6NbV3(PO4)6,mp-1176951,P1,2.933956752021885,0.06813632920312429,0.18050000000000033,3.71734584,False,True
5033,Li5Mn(CoO4)2,mp-1174028,P2/m,3.9441940873052785,0.12789066218749756,0.0,2.48002054,False,True
5034,Li2VO3,mp-861577,C2/m,3.466572191845134,0.023868585833333178,1.7996999999999996,2.59141856,False,True
5035,Li7Mn3Fe(PO4)6,mp-829746,R3,2.83120612953449,0.07691554280487445,0.0,2.64004628,False,True
5036,Li2CoO3,mp-1173888,C2,3.834166156109604,0.07257683999999998,0.4204999999999999,1.60926848,False,True
5037,Li3HfO3,mp-757794,P4_2/mnm,5.158673823890299,0.08929038352040752,0.0,2.6822044,False,True
5038,Li3Fe(BO3)2,mp-779307,P-1,2.4126044003475235,0.2660026518749996,2.5133,0.08769311,True,True
5039,K4Li3(FeO4)2,mp-758588,P1,2.6648036472891707,0.04924181522058735,0.14089999999999997,0.19480856,False,True
5040,Li5Bi2P5O18,mp-728627,P-1,4.125224336508162,2.6371698261388854,0.0,3.77453572,False,True
5041,Li9Mn2Co5O16,mp-1176176,P1,4.11015188891067,0.12345386468750075,0.0,2.60799864,False,True
5042,Li7Mn5O12,mp-1175362,C2/m,3.8549445999552185,0.04532271312500047,0.9306000000000001,3.66302153,False,True
5043,Li4Mn3O7,mp-1174330,P-1,3.8890717101762204,0.04446029714285693,0.6903000000000001,2.70119339,False,True
5044,KLi6IrO6,mp-14466,R-3m,4.2822371926179175,0.0,0.0,2.32803411,False,True
5045,Li9Mn2Co5O16,mp-1175669,P1,4.245373375444233,0.06337309562500071,1.3102,2.25568543,False,True
5046,NaLi5Fe2P2(CO7)2,mp-772293,P-1,2.815454572309751,0.0407167698076929,4.0042,1.88957643,False,True
5047,NaLi5Mn2P2(CO7)2,mp-772418,P2_1,2.7519823878225464,0.04902887878204609,3.2939,2.114135,False,True
5048,Li2CoP2O7,mp-757776,P2_1/c,3.0095565182559487,0.04460281409720235,2.817,1.54837254,False,True
5049,Li2MnSiO5,mp-755733,P4/nmm,3.2131424519382783,0.0900403724444443,0.5558000000000001,2.11285961,False,True
5050,Li3Mn2O5,mp-1173972,P-1,3.8542834997165305,0.0581167159999989,0.8235999999999999,2.71699166,False,True
5051,Li4MnCo2O7,mp-1174784,P1,4.06044313682134,0.13645234642857051,0.20909999999999984,2.7180636,False,True
5052,Li3V2(O2F)2,mp-758185,Cm,3.233318582541939,0.09913986556817012,0.45320000000000005,1.3470522,False,True
5053,Li8Cr3SbO12,mp-1176846,P1,4.010552764590205,0.08636706104167047,0.8148,2.90549508,False,True
5054,Na3Li3Fe2P2(CO7)2,mp-1176364,P1,2.859746191339641,0.031910931730769754,1.1039999999999996,2.13295869,False,True
5055,Li3AuO3,mp-7471,P4_2/mnm,6.02080605219084,0.0,1.7026000000000001,0.65238413,False,True
5056,Li6AlCrO6,mp-770562,P-31c,2.9434604004762837,0.10670618241071139,2.6681,4.93164131,False,True
5057,Li3Fe2(SiO4)2,mp-754087,P1,2.950774904965468,0.04121337566667371,1.3468,2.04038352,False,True
5058,Li4MnCo2O7,mp-1174621,P1,4.180085118397807,0.07359731464285613,1.0145000000000004,2.30652755,False,True
5059,Li5Mn3O8,mp-1174763,P-1,3.794419400888246,0.0666015459375,0.6335999999999999,2.78816038,False,True
5060,Li3(FeO3)2,mp-1286090,P2/m,3.6018161545808165,0.07442545233766129,0.0,1.37471577,False,True
5061,Li9Mn2Co5O16,mp-1176057,P1,4.168632478913544,0.1102265131250002,0.05310000000000015,2.75457321,False,True
5062,Li8Mn5O10,mp-764701,P1,3.505202379734456,0.03778350152173893,0.25160000000000027,2.69518225,False,True
5063,Li6V3P8O29,mp-772078,P1,2.588045598033121,0.027935092998180977,1.2014999999999998,0.77327024,False,True
5064,Li2CoO3,mp-1173880,C2/m,3.8433666913684545,0.07195325333333358,0.0,1.68583332,False,True
5065,Li3Fe2P4HO14,mp-800105,P-1,2.7932531147301414,1.4128854290277753,0.0,2.50283445,False,True
5066,Li2FePCO7,mp-768646,P2_1/c,2.7281338792053593,0.020119386979184917,2.4902,0.65468982,False,True
5067,Li3Sn(BO3)2,mp-770287,P2_1/c,3.316440050978033,0.09693429924479968,0.08940000000000037,3.57854603,True,True
5068,Li7Mn4CoO12,mp-1175172,P-1,3.9577569797079297,0.06036210260416475,0.746,2.72701272,False,True
5069,Li7Ni(O2F)2,mp-1374313,P1,2.6469225565404737,0.5277707320238099,0.5484,1.27707561,False,True
5070,Li4Mn3OF11,mp-753457,P1,3.294486068070832,0.07454572164474005,1.4098000000000002,-0.65136073,False,True
5071,Li14Cr2N8O,mp-542789,P-3,2.2709173816182515,0.17006794360000388,2.1601,1.17466392,True,True
5072,Li9Mn2Co5O16,mp-1175567,P1,4.191567347821613,0.07233354562500072,0.9142999999999999,3.12582808,False,True
5073,Li2AlCoO4,mp-1291925,P1,3.980391335300928,0.04686621687499937,0.030400000000000205,4.33534033,True,True
5074,Li2Cu(PO3)4,mp-26267,Pnma,2.8973894196830896,0.02144932706138203,0.0,1.78205528,False,True
5075,Li7Fe2P7O24,mp-757222,P2/c,2.739963281948507,0.06819345085417527,2.5575,0.95194406,False,True
5076,Li9Mn2Co5O16,mp-1100715,P2/m,4.220883132164997,0.05511991250000037,1.2153,3.50781152,False,True
5077,Li7Fe4(P2O7)4,mp-1176933,P1,3.0086262592962165,0.017543626489350927,1.6231999999999998,3.34611954,False,True
5078,Li2FeSiO4,mp-1265539,P2_1/c,3.023115593917808,0.022178255000000036,3.2020999999999997,4.86337859,False,True
5079,Li7Mn4CoO12,mp-1175278,C2/m,3.9429772445445463,0.059968035520832075,0.8882999999999996,3.51543371,False,True
5080,Li9Mn2Co5O16,mp-1175677,P-1,4.142437856743697,0.12144633625000001,0.4274,2.85079106,False,True
5081,Li3Sb2(PO4)3,mp-774523,C2,3.6205821005529106,0.08132176900001298,2.9263000000000003,3.22542019,True,True
5082,Li9Mn2Co5O16,mp-1100674,Cm,4.160686699902136,0.10813493312500011,0.0,3.14052997,False,True
5083,Li9Mn2Co5O16,mp-1175846,P1,4.163971419643819,0.08490154500000013,1.2053000000000003,3.3737175,False,True
5084,Li7Mn2(CoO4)3,mp-1175073,P2,4.086257438410025,0.07912637750000062,0.8329,3.16654338,False,True
5085,Li2CrP2O7,mp-26751,P2_1/c,2.863092628736929,0.03699403020836023,2.8274999999999997,2.47056132,False,True
5086,Li5Mn3O8,mp-1174685,P2/m,3.777136935523204,0.058399591562499964,0.9992999999999999,2.56654288,False,True
5087,Li2VPO4F,mp-831264,P2_1/c,3.0821366182057917,0.035066913292186364,1.2128000000000005,5.0338794,False,True
5088,Li7Mn4CoO12,mp-1175329,Pm,3.931279650052079,0.25641436010416463,0.7054999999999998,2.61107458,False,True
5089,Li3TaO4,mp-3151,C2/c,5.957283327084383,0.0,4.2438,1.0551473,False,True
5090,Li5NiOF5,mp-753377,P4/mmm,3.2404869309095985,0.0314530412500007,1.8952,2.59345501,False,True
5091,Li2VOF4,mp-760282,Cc,2.9878086385212805,0.005000960624999884,3.1186,-0.4374475,False,True
5092,Li2Cr(Si2O5)3,mp-767058,P-1,2.7075090447750934,0.09017090842592346,1.3383999999999998,2.72086891,False,True
5093,Li4MnCo2O7,mp-1174372,Cm,4.131898161036325,0.11291636428571294,0.0,2.92032997,False,True
5094,Li7Mn2(CoO4)3,mp-1175101,Pm,4.050579138905777,0.10042150833333352,0.0,2.32048618,False,True
5095,Li3CoRuO5,mp-1222819,C2/m,4.613371853691398,0.09803269249999502,0.0,3.32950008,False,True
5096,Li5Mn(SiO4)2,mp-861554,C2,2.5892534506513645,0.06633614632812534,0.5485999999999999,0.88085644,False,True
5097,Li2MnH8(SO6)2,mp-1178013,C2/c,2.0100469201481252,0.05922067339999515,3.9976999999999996,0.11726685,False,True
5098,Li4Co3O7,mp-1174276,P-1,4.268323429423834,0.07701870964285362,0.0,2.70055187,False,True
5099,Li10V(SiO5)2,mp-765779,C2/m,2.388542444048559,0.09099887202899737,0.8535999999999997,3.42598947,False,True
5100,Li3MnV(PO4)3,mp-778556,P1,3.1656176329479555,0.057437475187496645,0.3859999999999997,2.64184042,False,True
5101,Li3MnCoO5,mp-1174047,P-1,3.8921971054506592,0.13615247099999017,0.17910000000000004,2.64407125,False,True
5102,Li6V3P8O29,mp-772709,P1,2.582383992097263,0.019181023976441836,1.1004,0.83154338,False,True
5103,Li9Mn2Co5O16,mp-1100684,Cm,4.1747564789681695,0.0811131012500006,0.40070000000000006,2.3363493,False,True
5104,Li2Si4NiO10,mp-766697,P2_1/c,2.439556594260267,0.09147168764705693,3.7519,0.69210882,False,True
5105,Li3Fe2(CO3)4,mp-758565,P2_1,2.238312082928518,0.08634820047619574,1.2538,-0.28803707,False,True
5106,Li7Mn4CoO12,mp-1175187,P1,4.027775137710224,0.022104670104164725,0.7872000000000003,3.05601196,False,True
5107,Li3Co2(SiO4)2,mp-759124,Pc,3.051970451353168,0.05640675799999961,0.37850000000000006,1.63556535,False,True
5108,Li3MnV(PO4)3,mp-779239,Cc,3.1645499610276433,0.057334312937497245,0.0,2.67712996,False,True
5109,Li2VO2F,mp-763198,Cm,3.325274653306417,0.09867273916666264,1.1219999999999999,2.76267949,False,True
5110,Li4MnO2F3,mp-1344975,P-1,3.097660668280011,1.205574451500003,0.06789999999999985,2.62943739,False,True
5111,Li4Mn(PO4)2,mp-26081,P2_1/c,2.6058715675918886,0.010621523999994942,4.124,1.07927747,False,True
5112,Li4Ti2Si4O13,mp-765243,Pna2_1,2.9602650294459223,0.07599452424637487,0.0,5.81887283,False,True
5113,Li2AlVO4,mp-755460,P-1,3.6173487834733167,0.024599422395833237,1.3213999999999997,4.59040855,False,True
5114,Li9Fe3(OF7)2,mp-780155,P-1,2.911197985831147,0.04783439978174009,1.8077999999999999,-0.08698172,False,True
5115,Li9Mn2Co5O16,mp-1176042,P1,4.234777081057615,0.10757814687500034,0.0,2.55991375,False,True
5116,Li2MnBPO7,mp-771706,P2_1/m,2.700914241010692,0.07044418205729563,0.49470000000000003,0.64316226,False,True
5117,Li3Mn2P2(CO7)2,mp-768836,P1,2.6757180593103866,0.030709326847781604,0.0,0.8898,False,True
5118,Li3Fe2(SiO4)2,mp-752644,P1,3.034421101254335,0.06359924033334075,1.1402999999999999,2.44094897,False,True
5119,Li3MnV(PO4)3,mp-1177577,P1,3.010548781597289,0.032386961312496965,0.5802,1.91482557,True,True
5120,Li7Mn4CoO12,mp-1175297,P1,3.886805666377709,0.09222911760416608,0.0,2.40527708,False,True
5121,Li4MnO3F,mp-753101,Cmc2_1,2.642866499906407,0.09914368138888818,0.7303,0.8371131,False,True
5122,Li4Mn3P3O12F,mp-759107,P-43n,2.6803426862823736,0.073979752499997,3.5760000000000005,0.62979107,True,True
5123,Li4V3OF11,mp-780283,P-1,2.924660728784833,0.04877620144737449,1.8082999999999998,0.34988666,False,True
5124,Li7Mn4CoO12,mp-1175141,P-1,3.9819425891622435,0.01995762489583175,0.0,3.37510571,False,True
5125,Li9Mn2Co5O16,mp-1175654,C2,4.251013236124959,0.07600544468750048,0.9266999999999999,2.56463888,False,True
5126,Li7Mn4CoO12,mp-1175263,P1,3.943500912761074,0.06238354343749908,0.6513999999999998,3.37688556,False,True
5127,Li2Si2NiO6,mp-766931,Pmn2_1,3.1833969734654315,0.10310797446968323,2.9578999999999995,2.56853992,True,True
5128,Li9V3P8O29,mp-761091,P1,2.6217791333797953,0.018770223044188405,1.6202999999999999,1.6505954,False,True
5129,Li2VP4(H2O3)6,mp-780300,P2_1/m,2.1351630904712464,0.029240368123124583,2.6006,2.09857459,True,True
5130,Li3BiB4O9,mp-768715,P2_1/m,3.9104318364240482,0.04867960397058191,3.6483,1.65125194,False,True
5131,Li3Fe(CO3)3,mp-765096,Ama2,2.47102938386484,0.058258650624999575,1.8911999999999998,0.22364102,True,True
5132,Li9Mn2Co5O16,mp-1175681,P-1,4.286160319759789,0.09317437687500085,0.0,2.98562228,False,True
5133,Li2NiO3,mp-674420,C2/c,4.256342665891156,0.0010552962500005592,0.9437000000000002,2.24842441,False,True
5134,Li32Ti5Cr11O48,mp-777735,P1,3.4933051750624453,0.0300689862760386,0.8551000000000002,2.31708784,False,True
5135,Li32Ti3Cr13O48,mp-777397,P1,3.526762541112464,0.019341929661460533,1.0460000000000003,2.12691541,False,True
5136,Li6Mn3P8O29,mp-776277,P1,2.6675807848999815,0.01224407317480658,0.6261999999999999,0.72716648,False,True
5137,Li2P2WO8,mp-762289,P-3,3.991787845373536,0.03578445192307633,3.2535,1.21239313,False,True
5138,Li5Mn(CoO4)2,mp-1174000,P2,4.003562767299918,0.03738856593749684,0.8935,2.28902543,False,True
5139,Li24Mn5Cr7O36,mp-778112,P1,3.6457681289787334,0.03545295124999637,1.0202,2.18189854,False,True
5140,Li9Mn2Co5O16,mp-1176231,P1,4.087303688768575,0.2639015168750003,0.0,2.4990178,False,True
5141,Li4Mn3OF11,mp-861557,P1,3.2641982170359434,0.04444242690789757,1.0928,-0.38093439,True,True
5142,Li9Mn7O16,mp-1330301,P-1,3.918106770718099,2.4213673601562498,0.0,4.03928633,False,True
5143,Li4V3P8O29,mp-851254,P1,2.5318833687659605,0.05093957549242312,0.4561,0.54420366,False,True
5144,Li2MoO3,mp-698666,P1,4.418179089352715,0.04447386645832907,0.5515999999999996,4.26432854,False,True
5145,Li5Mn2(PO4)3,mp-768651,P1,2.7771511562408273,0.05032988227272117,3.8729000000000005,1.52957149,True,True
5146,Li4V3P8O29,mp-765428,Cc,2.521800471207576,0.041423743333331764,1.0252,0.28771146,False,True
5147,Li5Mn2CoO8,mp-1174009,P-1,3.96531355210981,0.04533271625000079,0.9091,3.40885614,False,True
5148,Li6FeO5F,mp-764903,P1,2.2785658582813784,0.09236244884615186,0.0,-0.55732888,False,True
5149,Li9Cr4P4(CO7)4,mp-1176987,P1,2.699052504437065,0.035667086766579814,0.3859999999999997,3.19994641,False,True
5150,K4Li7Mn2O8,mp-760897,Pc,2.705745390224384,0.08213576273809409,0.0,1.91789524,False,True
5151,Li2V(SiO3)3,mp-757471,P2_12_12_1,2.4237011727523217,0.0951326113333355,2.1058999999999997,0.87406181,False,True
5152,Li3FeO4,mp-1279318,Aea2,3.2338767535841964,0.06838131062499997,0.18789999999999984,0.86689664,False,True
5153,Li5Fe2P2(CO7)2,mp-768862,P-1,2.737989017896511,0.032041826150005726,1.3763999999999998,1.73776419,False,True
5154,Li4Fe2Si3O10,mp-757438,C2/c,2.9863105836355017,0.020029902631578445,2.8516999999999997,2.32205168,False,True
5155,Li3Mn(PO4)2,mp-757646,C2/m,3.1216933514501375,0.04041996767862166,0.24419999999999975,2.10440134,False,True
5156,Li9Mn2Co5O16,mp-1175952,P1,4.15068387573352,0.13323381468750028,0.0,2.75447359,False,True
5157,Li4Si2NiO7,mp-1273461,P1,2.9211283939440773,0.03222188589285846,3.6686,5.17647317,False,True
5158,Li3NiPCO7,mp-766593,P2_1/c,2.9862637416138864,0.08039769750000403,3.2615,1.73515384,False,True
5159,Li9Mn2Co5O16,mp-1175741,P-1,4.173993981433498,0.1121550528125006,0.0,2.78129631,False,True
5160,Li4Mn3O7,mp-1174248,P-1,3.906142030656784,0.025308212142856057,0.8759999999999999,2.71665376,False,True
5161,Li4MoP2O9,mp-504158,C2/m,2.994578102643472,0.04668491421873444,1.6212000000000002,1.78038867,False,True
5162,Li7Co5O12,mp-1648494,C2,4.374272473216703,0.022634519374997275,0.35970000000000013,2.60839849,False,True
5163,Li9Mn7O16,mp-1100521,P-1,3.8976548248900387,0.04273826296874983,0.5720000000000001,2.78806615,False,True
5164,Li3Sn2(PO4)3,mp-757899,P2_1/c,3.366378577282147,0.04430292508332645,1.9351999999999996,2.55309401,True,True
5165,Li2FeBO4,mp-768290,Pnma,3.1073741946930067,0.08180362562499965,2.3452,1.19240922,False,True
5166,Li2CrP2O7,mp-754619,P2_1,2.6078684255526072,0.019689895833359117,1.9725000000000001,3.10258184,False,True
5167,Li3V(BO3)2,mp-770345,P2_1/c,2.7763873325543256,0.06740375250000419,1.9767000000000001,4.14898364,True,True
5168,Li5Fe2(PO4)3,mp-1177302,P2_1,2.9633283861178996,0.05141244056817218,3.9183,1.9272269,False,True
5169,Li9Mn2Co5O16,mp-1176082,P1,4.221336844563077,0.07897867093750044,0.6307,3.27902437,False,True
5170,K2Li4UO6,mp-559263,P-3m1,3.96845428885848,0.14060186096153782,2.1501,1.33868993,False,True
5171,Li2MnSiO4,mp-780666,Pnma,3.0103544157050846,0.010774959999999112,2.8823999999999996,1.96075164,False,True
5172,Li3Ni2(PO4)3,mp-504139,C2,3.073175888844377,0.0825327546458281,0.0,1.12623379,False,True
5173,Li5V3P8O29,mp-765196,P1,2.564669643971059,0.03418210175925829,0.9464,0.59065738,False,True
5174,Li3Si2(NiO4)2,mp-777771,Pc,3.1065633275170605,0.08465048795555496,0.9791999999999998,1.59259009,False,True
5175,Li5NbO5,mp-770799,C2/c,2.8990261549857292,0.016981532840905977,3.9186,0.11701811,False,True
5176,Li3Si6NiO15,mp-757292,Cmce,2.7288313686823233,0.08945501873333139,2.1011,1.73619008,False,True
5177,Li12VCr3P4(CO7)4,mp-766537,Pm,2.714162868938741,0.08108959401442739,1.9836999999999998,3.43743639,False,True
5178,Li7Mn4CoO12,mp-1175287,P1,3.906293021480361,0.08725283802083172,0.2368999999999999,2.99497586,False,True
5179,Li2InP2HO8,mp-1222810,P2_1,3.3949205837097733,0.0,3.9210000000000003,1.5515499,False,True
5180,Li3VBPO7,mp-768575,P2_1/m,2.7345002288044875,0.08819071576922877,1.9571999999999998,1.89680164,False,True
5181,Li7Mn4CoO12,mp-1175252,P1,3.955598058902423,0.05994665510416475,0.5657999999999999,2.88047047,False,True
5182,Li3Mn2(PO4)3,mp-26453,C2/m,3.2924884630638345,0.028542203250049525,0.0,2.59845628,False,True
5183,Li3V(H6O5)2,mp-1193122,R3,1.6866897960723615,0.008036281346149643,4.0668,2.17324927,False,True
5184,Li5(FeO2)4,mp-780312,Cc,4.122382594806084,0.07724308705882343,0.8509999999999995,4.40699171,False,True
5185,Li7BiO6,mp-754060,R3,4.301861976787171,0.012401709285714269,1.8489,0.72146908,False,True
5186,Li2Cr(Si2O5)2,mp-758640,P-1,2.642087171243199,0.0468206514117675,2.6140000000000003,3.12691168,True,True
5187,Li5CuSO2,mp-755243,P4/mmm,2.330040428230853,0.045453221840276115,2.1517,1.20718317,True,True
5188,Li3MnCoO5,mp-1174096,P1,3.951713752646983,0.10634978499998926,0.2133999999999996,2.84648,False,True
5189,Li3Mn(PO4)2,mp-760997,P1,2.592168154285225,0.03268652464290778,0.4827999999999999,0.85485796,False,True
5190,Li5Co2O2F5,mp-850204,I4/mmm,3.6881742005337514,0.08930253607142902,0.0,2.5708452,False,True
5191,Li2AlFeO4,mp-755524,Pmn2_1,3.044814395711079,0.02653165312499972,2.6794,1.11971889,False,True
5192,Li7Ni2P7O24,mp-867543,P2/c,2.742380091290879,0.09138715092708427,0.0,0.96329212,False,True
5193,Li4V3P8O29,mp-850022,Cc,2.5373031270662274,0.0469118939015134,1.0821999999999998,0.2210674,False,True
5194,Li4FeOF5,mp-775155,P3_1,2.919199575308237,0.10836888510101694,2.7619,-0.23938951,False,True
5195,Li5V4O8,mp-756794,F-43m,4.006984783327072,0.09700367852941394,0.0,5.06727006,False,True
5196,Li3Sb2P5O18,mp-26586,P1,3.3261801457125015,0.03578546473214228,1.8144999999999998,2.14957589,False,True
5197,Li7Mn4CoO12,mp-1175284,Cm,3.938954658013277,0.07397594052083178,0.46499999999999986,2.82473179,False,True
5198,Li9Mn2Co5O16,mp-1100695,P2/m,4.123441805787722,0.30499389000000043,0.0,2.57010506,False,True
5199,Li9Mn2Co5O16,mp-1176119,P1,4.1466476880976195,0.10729657781250079,0.022699999999999942,2.73695505,False,True
5200,Li7Mn4CoO12,mp-1175281,C2/m,3.94902538960353,0.05763217135416543,0.0,2.2405072,False,True
5201,Li5V3P8O29,mp-760071,P1,2.5719258558424776,0.035127581425925314,0.9372,0.69509837,False,True
5202,Li7Mn5O12,mp-1666644,P-1,3.8694522972617627,0.02876297812500006,0.605,2.89258357,False,True
5203,Li3Fe(PO4)2,mp-760008,P2_1/m,3.0879736788858887,0.020652418214282875,1.8955999999999997,1.79198181,False,True
5204,Li4MnCo2O7,mp-1174833,Cm,4.047166931626954,0.25180408928571296,0.0,2.13343301,False,True
5205,Li3Co2(SiO4)2,mp-757066,Cm,3.032324498175423,0.08998514266666646,0.0,1.45368008,False,True
5206,Li12Mn2Fe3O16,mp-767746,P1,3.526838153032148,0.09363859409090924,0.0,1.69077426,False,True
5207,Li9Mn2Co5O16,mp-1176112,P1,4.179791769348128,0.11935861687500005,0.0,2.59591879,False,True
5208,Li9Mn2Co5O16,mp-1175557,P1,4.257883883652637,0.07391210125000036,0.5536000000000003,2.67891122,False,True
5209,Li3Mn2P2(CO7)2,mp-768837,P1,2.6979265675618054,0.0320234377173465,0.24580000000000002,0.72994556,False,True