,formula,mp-id,crystal system,density,energy above hull,band gap,efermi,is gap direct,theoretical
1934,Li7Mn4CoO12,mp-1175292,P2/m,3.9521180117509576,0.06294369135416478,0.10880000000000001,2.86528285,False,True
1935,Li2Sn(PO3)4,mp-863365,C2/c,2.7547983005760797,0.054380942171055935,3.5839999999999996,1.6655126,False,True
1936,Li6CoO4,mp-18925,P4_2/nmc,2.830290317086024,0.0,2.4,1.37799651,False,True
1937,Li5CrP2(O4F)2,mp-770679,P3,2.7507127201933748,0.04383468916665656,3.1341000000000006,0.95588329,False,True
1938,Li13Mn8O24,mp-758586,P2/m,3.67971567759704,0.0684395682666663,0.0,1.43906096,False,True
1939,Li7Cr3(WO8)2,mp-771209,Cm,4.704016966086032,0.05740927996031253,1.1508,1.12283804,False,True
1940,Li7Ni5O12,mp-756913,P-1,4.414499586178235,0.021819087083331468,0.0,3.16188153,False,True
1941,Li9Mn2Co5O16,mp-1100607,Pm,4.183536182085627,0.10817661718750049,0.12179999999999991,3.16285105,False,True
1942,Li9Mn2Co5O16,mp-1175942,P1,4.151262803813179,0.09188159937500018,0.13599999999999968,2.89621017,False,True
1943,Li7Mn2(CoO4)3,mp-1174917,P2/m,4.021387203357718,0.13819644875000048,0.0,2.59707723,False,True
1944,Li3Fe2(SiO4)2,mp-758973,P2_1,2.9428289500092086,0.06209186000000688,1.0859999999999999,2.06524099,False,True
1945,Li4WO6,mp-1222509,C2/m,4.463290275897395,0.14060693266667013,0.0,0.10776664,False,True
1946,Li3Sb2(PO4)3,mp-762044,P2_1/c,3.475342304809889,0.0631914627500123,3.547,2.90594735,True,True
1947,Li7TaO6,mp-28891,R3,4.045202262857569,0.03254020428571547,4.2804,0.38030659,False,True
1948,Li2CoBO4,mp-771019,P2_1/c,2.809312962701091,0.0750755067708404,1.0322,0.30055838,False,True
1949,Li11Fe5(OF11)2,mp-1178085,P1,3.0914662624340283,0.0340656640139132,2.3187,-0.52930702,False,True
1950,Li4V3P8O29,mp-765430,Cc,2.5317587111483806,0.04868752731060422,1.0944,0.23867687,False,True
1951,Li4Be3P3IO12,mp-1211168,P-43n,2.764864760868804,0.0,5.3771,1.09335341,True,True
1952,Li8Fe3Sn(PO4)6,mp-775125,R3,2.975965729018996,0.11468287482143236,3.1872,2.56171551,False,True
1953,Li7Mn2(CoO4)3,mp-1174949,P1,4.086270773710319,0.0726151916666673,1.0948000000000002,3.33171169,False,True
1954,Li5Mn2CoO8,mp-1310376,P-1,3.9307701095645493,0.05430902406250038,1.2312999999999996,2.2201977,False,True
1955,Li6V3P8O29,mp-1176908,P1,2.560472026132372,0.01972886636774618,1.2342,0.61840338,False,True
1956,Li6Co3Sb(PO4)6,mp-774592,P1,3.192891637552292,0.18599772212498866,0.016799999999999926,3.20261188,False,True
1957,Li6V3P8O29,mp-1176943,P1,2.584868806197378,0.024001801911225584,1.1042,0.7157998,False,True
1958,Li4V3P8O29,mp-1177208,P1,2.5126099658500607,0.04901241481060392,0.8543999999999999,0.20062144,False,True
1959,Li2MnP2O7,mp-1579309,C2/c,2.6858306652528063,0.03721217291666612,4.2349,1.07195577,False,True
1960,Li4V3P8O29,mp-760113,P1,2.5282164217876706,0.04671308378787753,0.5292,0.47583346,False,True
1961,Li2Cr(PO4)2,mp-697774,P2_1,3.0340049614455094,0.0714226773809532,0.0,1.60777779,False,True
1962,Li9Mn2Co5O16,mp-1175578,P1,4.245320965938135,0.06477876343750033,1.2811,3.55031328,False,True
1963,NaLi2MnPCO7,mp-772651,P1,2.7917987381973632,0.04652596602563719,3.5422,2.10262221,False,True
1964,Li3MnV(PO4)3,mp-777809,C2,2.8347021782769533,0.06868982668749712,0.3851,2.12245767,False,True
1965,Li3La2(BO3)3,mp-1211607,P2_1/c,4.18681929168061,0.0031659916176476344,4.504899999999999,3.13087227,False,True
1966,Li3Mn2(SiO4)2,mp-780287,P2_1,2.8978352702489376,0.08896260636110132,0.0,1.83652516,False,True
1967,Li3CuOF3,mp-1147575,P4/mmm,3.6194359990700846,0.06619786124999916,0.32820000000000005,1.56033655,False,True
1968,Li6Mn3CoO10,mp-1174830,P1,3.8487464992517344,0.09695257687499659,0.0,2.63069416,False,True
1969,Li2V(CO3)2,mp-766005,P2_1/c,2.130481166154135,0.061305260539775475,2.8471,1.84986969,False,True
1970,Li2CoSiO4,mp-757664,P2_1/c,3.1296427462892638,0.04352703281249326,2.3923000000000005,1.65128967,False,True
1971,Li9Mn2Co5O16,mp-1100643,Cm,4.164475450001826,0.10821922031250075,0.0,3.03323563,False,True
1972,K2Li3CrO4,mp-766413,P2_1/c,2.737049626129093,0.06988048483000142,1.0503999999999998,3.37872956,False,True
1973,Li9Mn2Co5O16,mp-1175612,P-1,4.210259154879613,0.07943343468750008,0.7309999999999999,2.57024999,False,True
1974,Li3Co2O2F3,mp-760300,I4/mmm,4.17662632486661,0.16580061350000008,0.0,2.98486538,False,True
1975,Li7Mn2(CoO4)3,mp-1175048,P1,4.021471898942153,0.10701183916666679,0.12179999999999991,2.86597993,False,True
1976,Li2FeO2F,mp-776565,C2/m,3.512678728631487,0.0977726845833331,1.9849,1.6127718,False,True
1977,Li4MnCo2O7,mp-1174720,P1,4.11579241650034,0.23149050321428444,0.18230000000000013,2.53294424,False,True
1978,Li7Mn2(CoO4)3,mp-1175196,P3m1,3.9790927504331064,0.24227041625000023,0.0,2.49649048,False,True
1979,Li5Fe4(P2O7)4,mp-849560,P1,3.0318134955534073,0.05640104903704035,1.4432000000000003,1.77551739,False,True
1980,Li4MnV(PO4)3,mp-768584,P-1,2.8286953687922574,0.025754849285712922,2.0378,1.61586275,False,True
1981,Li6V3P8O29,mp-1176915,P1,2.579539357237457,0.02285937604165955,1.5658,0.47228424,False,True
1982,Li9Mn2Co5O16,mp-1100735,P2/m,4.170809231701903,0.12612031750000074,0.0,2.58147764,False,True
1983,Li2VP2O7,mp-752788,P-1,2.853911413041492,0.044620556675339706,0.03190000000000026,5.17704115,False,True
1984,Li2WO4,mp-18902,R-3,4.295622001485817,0.015912863571428737,4.877,-1.49404696,False,True
1985,Li2CrO3,mp-770192,Cc,3.6530270377557503,0.05374398708333228,0.23320000000000007,2.44741125,False,True
1986,Li9Mn2Co5O16,mp-1176239,P1,4.1455540560642685,0.26270917812500016,0.0,2.52297967,False,True
1987,Li9Mn2Co5O16,mp-1176310,C2/m,4.22629367589166,0.08195910125000072,0.9178999999999999,2.45059242,False,True
1988,Li3V2(PO4)3,mp-26711,C2/c,2.966690502917559,0.034842189000027446,1.7452999999999999,2.650426,False,True
1989,Li3CrPCO7,mp-25459,P2_1/m,2.6536464743798067,0.07469476252404128,2.6266,2.40630245,False,True
1990,Li6V3P8O29,mp-757184,P1,2.5888094900449237,0.023427540715573514,1.4529,0.58453166,False,True
1991,Li2Fe(SiO3)2,mp-863428,Fdd2,2.7234250117420675,0.057422251590909745,2.9174,4.85440254,False,True
1992,Li5Mn4(Si3O10)2,mp-778120,P1,2.9075611097237535,0.07028109714285691,0.0,2.56231633,False,True
1993,Li3V(PO4)2,mp-757268,P2_1/m,2.6758616673982183,0.07392204214283193,1.7255000000000003,1.97408001,False,True
1994,Li2MnP2O7,mp-1101535,P-1,2.7702127195780744,0.006747169999998803,4.3122,1.25502044,False,True
1995,Li2Co(Si2O5)2,mp-757519,P2_12_12_1,2.370261174370624,0.07509794279411697,4.2573,0.90188475,False,True
1996,Li5Mn4P4O16F,mp-759154,I-4,3.299643300325028,0.07804455266667265,3.5293,2.50027645,True,True
1997,Li7Mn2(CoO4)3,mp-1175080,P1,4.043542285021653,0.10383427166666692,0.2490000000000001,2.68276757,False,True
1998,Li2CoP2O7,mp-26515,P1,2.9961862223913656,0.036216294513868874,2.8447000000000005,1.82690571,False,True
1999,Li3MnCoO5,mp-1174072,C2,4.022540017777692,0.05138326149999006,1.6725999999999999,1.95909068,False,True
2000,Li4MnCo2O7,mp-1174692,P1,4.1811443191518105,0.0809718360714271,0.7526999999999999,3.42023718,True,True
2001,Li7Mn2(CoO4)3,mp-1174924,P1,4.0970660852762935,0.07296654333333397,0.9116000000000004,3.32650166,False,True
2002,Li2Ti(BO3)2,mp-754445,P1,2.314839386765869,0.08524623012985089,2.7927999999999997,0.19056204,False,True
2003,Li4Fe(SiO3)3,mp-758639,C2,2.7017250059750153,0.08144499485293455,3.0729,2.55218145,False,True
2004,Li7Co5O12,mp-1174246,P-1,4.715808030652596,0.015963369999997923,0.4598,3.31952055,False,True
2005,Li24Ti5Cr7O36,mp-768532,P1,3.488238689509138,0.021171212395836747,0.0,2.26596045,False,True
2006,Sr2Li2NiO4,mp-753817,P-1,4.310478139071225,0.09083695805555614,2.3334,1.94669135,False,True
2007,Li2CuPO4,mp-762111,P3_121,3.344552361019395,0.09197917572916747,1.8063000000000002,3.30532897,False,True
2008,Li2SnCSO7,mp-770884,P2_1/m,2.883991923638944,0.10302030578125265,3.7891000000000004,1.43933591,False,True
2009,Li7Mn2(CoO4)3,mp-1174927,P1,4.12630402508059,0.07817100791666665,0.44010000000000016,3.12394878,False,True
2010,Li32Ti3Cr13O48,mp-777593,P1,3.5467492320719782,0.019298069453126843,0.9586999999999999,2.36799468,True,True
2011,Li7Mn4CoO12,mp-1175303,Pm,3.8916739761096575,0.09091118135416565,0.0,2.44839089,False,True
2012,Li2P5WO15,mp-758370,P2_1/m,3.0830779503836516,0.03017553833333242,1.5090000000000003,3.5594197,True,True
2013,Li2Co(PO3)4,mp-26359,C2/c,2.595137354405624,0.013010990219298968,2.9976000000000003,1.05609169,False,True
2014,Li3MnCoO5,mp-1174150,Cm,3.9730179657631988,0.11417946249998856,0.0,3.18674609,False,True
2015,Li5Mn3O8,mp-1174646,P2/m,3.8071886419160537,0.038321758437500186,0.0,3.19131148,False,True
2016,Li2Co(CO3)2,mp-759685,P2_1,2.373618039837546,0.06373795886363887,1.7619,0.35315909,False,True
2017,Li2FeSiO4,mp-752799,P1,3.119632558260124,0.0312945265625002,3.0614,5.12794039,False,True
2018,Li5Mn(SiO3)4,mp-774496,C2,2.584385502704108,0.09294612040199546,0.04510000000000014,2.81937596,False,True
2019,Li7Mn2(CoO4)3,mp-1174953,P1,4.177636866424328,0.07348749708333369,0.2772999999999999,3.28571964,False,True
2020,Li3Mn2(SiO4)2,mp-1177640,C2,2.8609391414483687,0.0897476340277672,0.0,1.49459637,False,True
2021,Li9Mn2Co5O16,mp-1175635,C2,4.155086923261805,0.08031739375000058,1.218,2.11019793,False,True
2022,Li4CoOF5,mp-1278660,P-1,2.9109366088665043,0.07855086045454573,0.5325,0.03569282,False,True
2023,Li2P2WO8,mp-753190,P2_1/c,4.002733071415468,0.006334047692306832,2.7776000000000005,1.14283529,False,True
2024,Li3SiBiBO7,mp-771028,P2_1/m,4.046894364867714,0.09619685288462243,0.0,2.05535233,False,True
2025,Li2Sn(HO)6,mp-1194119,P2_1/c,2.8716064567438915,0.000935592333330959,3.8055,-0.20884681,True,True
2026,Li2TiS2O,mp-769287,P2_1/c,2.2800698852651786,0.027613073564812574,1.9835000000000003,1.39321745,False,True
2027,Li3FeO3,mp-1665973,Pmn2_1,2.8076367689470554,0.12011166267857387,0.0,0.8338588,False,True
2028,Li9Mn2Co5O16,mp-1100725,P2/m,4.139290830032296,0.10116466875000008,0.0,2.95277613,False,True
2029,Li2Si2NiO6,mp-1667314,P1,2.874224859878125,0.1044610874999865,3.2861999999999996,1.41182686,True,True
2030,Li7V3P8O29,mp-761127,C2/c,2.631577532390701,0.029618417584218903,1.3010000000000002,2.31777601,False,True
2031,Li3Ni2(PO4)3,mp-1177557,P2_1/c,2.960455862551954,0.07441004764582893,0.03210000000000002,0.68529091,False,True
2032,Li3V(PO4)2,mp-1177531,P2_1/c,2.737724699086261,0.060106927142832056,0.0,3.89400496,False,True
2033,Li9V6(P8O29)2,mp-850768,P1,2.5539157364538014,0.04681238472847049,0.5789000000000001,0.47984776,False,True
2034,Li2AlCoO4,mp-1276282,P-1,3.986189466181977,0.06073105624999986,0.0,3.89342485,False,True
2035,Li7V4(PO4)6,mp-1176893,P1,2.8308469722846206,0.06422469329268221,0.04159999999999986,3.29790215,False,True
2036,Li2BiO3,mp-769026,C2/c,6.149964292888446,0.050879315208327114,1.0351,3.16457029,False,True
2037,Li6Mn3Fe(PO4)6,mp-1176969,P1,2.96157506886693,0.05378874043749704,0.8845999999999998,1.51411668,True,True
2038,Li24Mn5Cr7O36,mp-768726,P1,3.6475106051550354,0.03591943805555253,1.0677000000000003,2.18569816,False,True
2039,Li4V3P8O29,mp-765015,P1,2.534263489408117,0.0508995606060596,0.8057999999999998,0.37966955,False,True
2040,Li4Mn3O7,mp-1174463,C2/m,3.740967336051689,0.1338127292857143,0.0,2.28470703,False,True
2041,Li4MnCo2O7,mp-1174623,C2/m,4.0605879303141545,0.18388791535714155,0.0,2.47275926,False,True
2042,Li2MnP2O7,mp-770967,P2_1,2.70856887595621,0.006566664374998865,3.7512999999999996,1.44669063,False,True
2043,Li2Cr(PO4)2,mp-757515,P2_1/c,2.949808597541032,0.08474815968864569,1.7776,2.88045,True,True
2044,Li9Mn2Co5O16,mp-1175583,P1,4.187385276978171,0.07953177156250035,0.9626000000000001,2.46717135,False,True
2045,Li7Mn2(CoO4)3,mp-1175129,Cm,4.029191116871435,0.12237283625000028,0.0,2.81877685,False,True
2046,Li4VP2O9,mp-758466,Pnma,1.9557793457455421,0.0836819432812499,1.6846999999999999,-0.37214884,True,True
2047,Li10Cr2Fe3Co3O16,mp-774310,Cm,4.24158905306786,0.10074134063725904,0.0,3.52157871,False,True
2048,Li3Mn(PO4)2,mp-758781,P1,2.721784363799341,0.07603766803576484,0.9690999999999999,1.2032428,False,True
2049,Li7Mn2(CoO4)3,mp-1175069,P1,4.07273840958398,0.10737260458333342,0.00849999999999973,3.04915422,False,True
2050,Li5LaO4,mp-779720,Pbca,3.6309996162619416,0.0616451390624988,3.9896000000000003,2.96683479,True,True
2051,Li5Mn(CoO4)2,mp-1390220,P-1,3.9813722561623632,2.790044270312497,0.0,3.27317083,False,True
2052,Li5V2P5O18,mp-26595,P-1,2.9732773096955056,0.02035948477774774,1.9323000000000001,2.21373416,False,True
2053,Li2CuPO4,mp-27047,Pmn2_1,3.4103722179058473,0.05555803531250092,1.4867000000000004,4.15568221,False,True
2054,K2Li3MnO4,mp-773015,P2_1/c,2.7860142625461366,0.034483047958342894,0.4625999999999999,2.11169968,False,True
2055,Li4Mn3O8,mp-771777,R-3m,3.653047741064356,0.03854341733333033,0.7609999999999999,1.6191298,False,True
2056,Li3VPCO7,mp-756658,P2_1,2.7235561026987036,0.081653084230771,2.8402999999999996,3.15165801,True,True
2057,Li5Mn2CrO8,mp-1222520,C2/m,3.81955484842763,0.047958289375006125,0.6608,2.75447647,False,True
2058,Li3CrP2O9,mp-504343,P1,2.6224545313349674,0.07083009376190752,0.0,0.55222275,False,True
2059,Li9Mn2Co5O16,mp-1100636,Cm,4.149104950762332,0.10401431031250041,0.0,3.06618916,False,True
2060,Li9Mn2Co5O16,mp-1100614,Cm,4.1772964005149,0.11715863093750034,0.3099000000000003,2.67755906,False,True
2061,Li4Sn(PO4)2,mp-774623,P2_1/c,2.9147793899178174,0.05542101061111104,3.1841000000000004,1.99745737,False,True
2062,Li2MnOF3,mp-753753,P4_1,3.0872085974672205,0.036261443392857196,1.5139,-0.18839609,False,True
2063,Li9Mn2Co5O16,mp-1100628,Cm,4.145787552466149,0.13297089250000038,0.0,3.51468891,False,True
2064,Li7Fe4(PO4)6,mp-761017,P1,2.8934041452029695,0.0446174023780701,0.6465000000000001,2.52292354,False,True
2065,Li3V2P4(HO8)2,mp-779902,P1,2.905924715467196,0.06422613962962931,0.8773999999999997,2.05878679,False,True
2066,Li3Mn2P4HO14,mp-1337141,P-1,2.7083807447735877,0.8449389945833126,1.4643000000000002,2.05360684,False,True
2067,Li2Cu(SiO3)2,mp-757685,Fdd2,3.0009153781201037,0.07615903136363666,0.08719999999999972,2.3671649,True,True
2068,Li7Mn4CoO12,mp-1175242,P-1,3.8765969269392633,0.10919784510416441,0.0,2.48966195,False,True
2069,Li2FeSiO4,mp-559518,P2_1/c,3.068656469958742,0.0010099634375002609,3.3960999999999997,1.99946055,True,True
2070,Li2CuSiO4,mp-758311,Pnma,3.2984953324230792,0.05423100750000032,0.0,2.28101553,False,True
2071,NaLi2MnPCO7,mp-772234,P1,2.798546728319229,0.044820254871790866,3.5433,2.07895006,False,True
2072,Li7Mn2(CoO4)3,mp-1174931,C2,4.062860382630092,0.23897775749999983,0.0,2.08605679,False,True
2073,Li4MnCo2O7,mp-1174807,Cm,4.153112405376201,0.11655359678571298,0.0,3.02846635,False,True
2074,Li9Co7O16,mp-1175443,P-1,4.211929172247953,0.0941021809375,0.3601000000000001,2.34006658,False,True
2075,Li9Mn2Co5O16,mp-1176159,P1,4.151028406631472,0.10432138875000074,0.1812999999999998,2.57083532,False,True
2076,Li7Mn4CoO12,mp-1175244,P1,3.9610568274765012,0.05739943843749806,0.4348000000000001,2.84610196,False,True
2077,Li2VPCO7,mp-770949,P2_1,2.6583812571711274,0.013545932604165145,1.9668999999999999,1.29328482,False,True
2078,Li3Fe2(PO4)3,mp-6373,P2_1/c,2.96228704687764,0.001036691625006192,2.4096,1.12952123,True,True
2079,Li17(CoO4)3,mp-1172980,P1,2.6468879408188473,0.015448023281251722,0.3449000000000002,1.25120971,False,True
2080,Li3VPCO7,mp-766612,P1,2.6864586541018483,0.08772690634615543,2.4336,3.26432165,False,True
2081,Li9Mn2Co5O16,mp-1372518,P-1,4.242183611379432,1.4162831928125001,0.0,3.57068339,False,True
2082,Li3Mn(OF)2,mp-753308,P2/c,3.2791223241172247,0.06952596874999895,0.9794999999999998,1.96871293,False,True
2083,Li3Cr2(PO4)3,mp-31729,Cc,2.9508145221463526,0.014164325500004793,3.0089000000000006,1.34694647,True,True
2084,Li2Sn(BO3)2,mp-778397,P1,3.4371423248946624,0.07666499795454396,3.0463999999999998,1.76894375,True,True
2085,Li3MnV(PO4)3,mp-768587,P1,2.8348366629476827,0.046201738687496885,0.23819999999999997,1.89249157,False,True
2086,Li4MnCo2O7,mp-1174846,Cm,4.112117635730733,0.10239403178571305,0.19930000000000003,2.96646773,False,True
2087,Li9Co7O16,mp-1175467,P-1,4.336839246975923,0.05277925218750035,0.7393000000000001,3.08290467,False,True
2088,Li2NiO2F,mp-1272313,C2/m,3.9611817696000053,0.000844365555552784,0.4748999999999999,2.6833365,False,True
2089,Li9Mn2Co5O16,mp-1175789,P-1,4.07557107097557,0.12648178125000076,0.0,2.65674846,False,True
2090,Li9Mn2Co5O16,mp-1175994,P1,4.198007490038875,0.09417126687500055,0.5033999999999996,2.58084411,True,True
2091,Li7Mn4CoO12,mp-1175203,P1,3.957532102144681,0.038998305937498756,0.8702000000000001,3.6713167,False,True
2092,Li3MnCoO5,mp-1174079,P1,3.993493735145195,0.052178322499988994,1.6652,1.90476367,False,True
2093,Li2WO4,mp-19260,C2/c,6.030274467853497,0.0,3.7185000000000006,0.74231694,False,True
2094,Li9Mn2Co5O16,mp-1175891,P1,4.196319039060932,0.0753995103125007,1.0709,2.24123801,False,True
2095,Li9Mn2P4HO18,mp-780127,Ima2,2.7738020418352796,0.06494860970587801,1.0722,1.99760136,False,True
2096,Li7CrFe3(PO4)6,mp-760796,R3,2.879711781442593,0.05568473249999695,2.4489,2.29463727,False,True
2097,Na2Li4Mn2C4SO16,mp-759748,Fddd,2.6075832391721994,0.05495535844827604,3.8861,1.40187316,True,True
2098,Li5Mn3O8,mp-1277600,C2/m,3.809894871683103,0.026111960625000208,0.8290000000000002,2.72755841,False,True
2099,Li9Mn2Co5O16,mp-1175651,C2,4.177698106439821,0.07202709250000083,1.2031999999999998,2.21572444,False,True
2100,Li3MnV(PO4)3,mp-1177601,P1,2.9234866520043576,0.02420189943749662,0.4852000000000003,1.83536017,False,True
2101,Li2Hg(PO3)4,mp-559070,P2_1/c,3.6765186552063795,0.0050169205043850695,2.9522,0.63175233,False,True
2102,Li9Mn2Co5O16,mp-1175664,P-1,4.205239301398513,0.07474161718750061,1.0705,2.35074892,False,True
2103,Li5Mn4(P2O7)4,mp-849726,P1,2.9769389231332255,0.043790547055569284,0.00869999999999993,1.62262862,False,True
2104,Li3MnCoO5,mp-1174057,P-1,3.9982513957833605,0.06657377349998939,0.9135,3.38139859,False,True
2105,Li2H2SeO5,mp-1189942,P2_1,2.431796716704811,0.017277977916666742,4.007,-1.59095362,False,True
2106,Li2Fe(Si2O5)2,mp-772589,P-1,2.641386201384235,0.05004490426470465,3.3375,2.09587896,False,True
2107,Li2PWO4F,mp-25399,P1,4.533347138320549,0.2876616952777802,1.9727999999999999,3.20083497,False,True
2108,Li7Mn2(CoO4)3,mp-1174708,P1,4.064867997309854,0.09452170000000049,0.6114000000000002,2.91171388,False,True
2109,Li3Mn(PO4)2,mp-1663233,P-1,3.042525320823106,0.01690579000004977,0.9321000000000002,2.80176485,False,True
2110,Li2CrO2,mp-1178001,Immm,3.0562127105717107,0.020048116500000823,1.014,2.01121412,False,True
2111,Li5Cu4(BO3)4,mp-771172,P1,3.662730326636108,0.1264787817000137,0.0,2.83660706,False,True
2112,Li7Mn2(CoO4)3,mp-1175067,P1,4.02739480861325,0.1387894320833345,0.0,2.40884333,False,True
2113,Li4Co3O7,mp-1366652,P-1,4.254820432887892,1.6928886264285694,0.0,3.13316797,False,True
2114,Li4Mn3O8,mp-779008,R32,3.691150643778883,0.026494299333329252,1.6716,1.52113298,False,True
2115,Li9Co7O16,mp-1175400,P-1,4.396719074584136,0.06427092499999976,0.0,2.21142197,False,True
2116,Li3MnV(PO4)3,mp-1177587,P1,2.8658791393076237,0.05110116818749688,0.4357000000000002,1.82333742,False,True
2117,Li7Mn2(CoO4)3,mp-1174533,P-1,4.063460681766365,0.07881333500000043,0.6627999999999998,2.89661098,False,True
2118,Li8CoO5F,mp-780787,P2_1,2.4127605047073515,0.03114167233332754,1.5228000000000002,0.45029848,False,True
2119,Li6V3P8O29,mp-757217,P1,2.586396865216683,0.022973830606876966,1.0602,0.92281525,False,True
2120,Li7Mn(O2F)2,mp-802479,P1,2.4954074551359895,1.3623668346428568,0.34010000000000007,1.9094963,False,True
2121,Li9Mn2Co5O16,mp-1100748,C2/m,4.1308127296453465,0.15367578968750006,0.0,2.64433373,False,True
2122,Li4MnCo2O7,mp-1174792,Cm,4.127080012801425,0.27780976249999867,0.0,2.65791631,False,True
2123,Li7Mn2(CoO4)3,mp-1175047,P1,4.005749370179015,0.13030072500000056,0.029100000000000126,2.61068115,False,True
2124,Li3V2P4(HO8)2,mp-781013,P1,2.9091533901637816,0.06674886092592658,0.8002,2.01438774,False,True
2125,Li3Fe2OF5,mp-1177694,P1,3.4283505387790623,0.09591951409090615,2.8709,3.95142737,False,True