,formula,mp-id,crystal system,density,energy above hull,band gap,efermi,is gap direct,theoretical
4056,Li9Mn2Co5O16,mp-1175734,P1,4.237763332328095,0.09717871781250054,0.37150000000000016,2.83198416,False,True
4057,Li5MnCr3O8,mp-760296,P6_3mc,3.9864120196793045,0.0627392342156865,1.9825,3.63472898,True,True
4058,Li6Cr3P6WO24,mp-758279,P1,3.3441339325647754,0.05887162671875679,1.5734,2.36740109,False,True
4059,Li12Cr3FeP4(CO7)4,mp-766533,Pm,2.715132225015066,0.07045119205528483,2.4471,2.96639252,False,True
4060,Li5MnO4,mp-770510,Pbca,2.5728045432353466,0.043156893249996386,0.4777,1.09192481,True,True
4061,Li7V(O2F)2,mp-760137,P1,2.5213395515502226,0.08595923321428689,2.0031,1.38220434,True,True
4062,Li5Mo2P5O18,mp-729641,P-1,3.3156204252857613,2.746023384833321,0.0,3.5862269,False,True
4063,Li13Mn8O24,mp-758228,C2,3.6724357853811536,0.0622816151555563,0.0,1.32687045,False,True
4064,Li3FePCO7,mp-1177667,P1,2.799213269329041,0.050508438846154746,3.7475000000000005,2.18035971,False,True
4065,Li5Mn3O8,mp-1290794,P-1,3.8102636544789594,0.025091993749999375,0.4891000000000001,2.91860102,False,True
4066,Li4Fe3P4O15,mp-705404,Pna2_1,3.0692235374313026,0.0463309578525708,3.7823,5.77326225,False,True
4067,Li5V3P8O29,mp-765158,P1,2.572507471315725,0.036832485425925654,1.1186,0.52440516,False,True
4068,Li3Mn2C3O9F,mp-766471,Cc,2.934221470822747,0.05206513916666555,4.0815,1.4718954,False,True
4069,Li7Mn4(P2O7)4,mp-1176910,P1,2.947711137301786,0.0141711580318864,0.2165999999999999,1.90521214,False,True
4070,Li7Mn4(P2O7)4,mp-1176957,P1,2.926365374600158,0.013660576648907963,0.1302000000000001,1.72973151,False,True
4071,Li3Fe(Si2O5)3,mp-765285,Cmce,2.5921693963456134,0.03559831199999408,4.456099999999999,1.26352274,False,True
4072,Li8MnO6,mp-755817,R-3,2.7359771813738782,0.03001457999999868,1.5049000000000001,0.91886,False,True
4073,Li3Ni(BO3)2,mp-770786,P2_1/c,3.0406666502410444,0.03787859303573793,0.0,1.70825519,False,True
4074,K8Li9(FeO4)4,mp-759352,P1,2.6889090963251774,0.03472256525338402,0.0,0.46929921,False,True
4075,Li6Fe2O5F2,mp-776572,P-1,2.9979372105242965,0.09448574208332694,1.6397,3.05493851,False,True
4076,Li15Cr2O12,mp-758530,P1,2.652733528217726,0.07044912508620715,0.0,1.14076319,False,True
4077,Li4MnCo2O7,mp-1174862,Cm,4.085924763173673,0.35267867749999837,0.0,2.54186721,False,True
4078,Li2MnPCO7,mp-25394,P2_1/m,2.65936260515725,0.011827352708330352,0.8778999999999999,0.99363666,False,True
4079,Li10Ti2Fe3Co3O16,mp-778830,P1,4.1320488952767525,0.09621803996323486,1.4660999999999995,3.46914638,False,True
4080,Li7Mn4CoO12,mp-1175293,P2/m,3.96075693808507,0.0821303326041658,0.0,2.98180535,False,True
4081,Li7Mn4CoO12,mp-1639368,P-1,3.996433050250602,0.03155121468749833,0.0,3.15126567,False,True
4082,Li4MnCo2O7,mp-1174592,C2/m,4.066522297371278,0.13029872714285506,0.0,2.84770331,False,True
4083,Li6V3P8O29,mp-1176998,C2,2.581551880811035,0.025236404519920264,1.1640000000000001,0.71636277,False,True
4084,Li9Mn2Co5O16,mp-1175403,P-1,4.26306568171331,0.07579967093750017,0.6360999999999999,3.3556677,False,True
4085,Li2Mn(PO4)2,mp-1177939,P-1,2.87373860451767,0.07691053958333516,0.0,0.77418889,False,True
4086,Li7V3P8O29,mp-1176863,P1,2.6067531565838387,0.01951410045655866,1.0035,1.20304716,False,True
4087,Li2Co(Si2O5)2,mp-1264368,P2_12_12_1,2.3645029413163208,0.055606942352940614,3.3703999999999996,0.67553296,True,True
4088,Li3Mn(Si2O5)3,mp-757017,Pnma,2.7602448430881776,0.05443648941836621,3.5618000000000003,2.58011596,True,True
4089,Li3MnOF4,mp-1276200,Cm,2.923580094667464,0.07215820458333155,2.0076,-0.53839051,False,True
4090,Li3Ti(PO4)2,mp-757325,P2_1/c,3.008247514126324,0.07355644623809443,2.9516999999999998,5.17973103,False,True
4091,Li5Mn(CoO4)2,mp-1173997,P2/m,3.904504699885787,0.09168762531249719,0.0,2.18891552,False,True
4092,Li6Mn3CoO10,mp-1174388,Cm,3.701988469661573,0.21102236537499763,0.0,2.0372646,False,True
4093,Li9Mn7O16,mp-1100532,P-1,3.9148376782791097,0.03480193640625018,0.0,3.0624035,False,True
4094,Li2VO3F,mp-759788,P1,3.0894757479886166,0.08339574249999959,2.2236000000000002,0.54534614,False,True
4095,Li9Mn2Co5O16,mp-1175768,P1,4.162525820996394,0.09140006125000077,0.4645999999999999,2.44560019,False,True
4096,Li5Mn2CoO8,mp-1320662,P2/m,3.9264036631197974,0.05416952656250018,0.9160999999999997,3.55552642,False,True
4097,KLi2FeO3,mp-772421,Cc,2.925991620133582,0.06616530928571951,1.5869,0.69976611,False,True
4098,Li20Nb19O60,mp-686230,P1,4.234354521605624,0.056896090479797934,0.0,0.66278811,False,True
4099,Li5V3P8O29,mp-1177181,P1,2.5485684380165683,0.036148799203703064,1.1934,0.36469581,False,True
4100,Li7Mn2(CoO4)3,mp-1175104,Cm,4.061765039776875,0.12192499541666724,0.0,2.39571983,False,True
4101,Li7Mn5O12,mp-1666672,P-1,3.858836082341823,0.0326134806249998,0.5873999999999997,2.80690797,False,True
4102,Li2Fe(SiO3)2,mp-753951,C2/c,2.7551151784681176,0.0514391688636362,3.2217,1.89927323,False,True
4103,Li9Mn2Co5O16,mp-1176232,P1,4.215626877317131,0.09895737218750078,0.39460000000000006,2.69351149,False,True
4104,Li3Sb2(PO4)3,mp-759128,C2/c,3.3809770828361345,0.06751364550001249,3.3196999999999997,2.34459683,True,True
4105,Li2Cr(SiO3)2,mp-1261497,Fdd2,2.7609596603794286,0.059819803939397787,1.9896999999999996,4.75433211,True,True
4106,Li7Mn2(CoO4)3,mp-1174940,P1,4.068406667901947,0.07934748541666625,0.7334999999999998,3.05611428,False,True
4107,Li3Ti2(PO4)3,mp-781803,P1,2.7822245547903943,0.06717061548332826,0.0,4.36053739,False,True
4108,Li3B2SbO6,mp-770402,P-1,3.096975726485248,0.047288843333331165,2.7455,1.41543199,False,True
4109,Li4V3P8O29,mp-1177320,C2,2.5389844245713022,0.05045276912878638,0.8935000000000001,1.13438663,True,True
4110,Li9Co7O16,mp-1175493,P-1,4.196790456086477,0.15187258031250028,0.0,2.20800506,False,True
4111,Li9Mn2Co5O16,mp-1175600,P-1,4.261376095923911,0.10008421187500005,0.0,3.15385418,False,True
4112,Li4MnCo2O7,mp-1174394,P-1,4.152253782656816,0.058680111785712974,1.712,3.66825848,False,True
4113,Li3CoOF3,mp-764000,C2,3.449586430270073,0.09955158656249985,2.0876,1.98221736,False,True
4114,Li2AlFeO4,mp-770629,Pnma,3.0234579873972516,0.026731122500000204,2.6785,1.10808492,True,True
4115,Li2MnCO5,mp-764236,Pbam,3.2889488450298074,0.041861333888890684,0.5015000000000001,1.68247476,True,True
4116,Li9Mn7O16,mp-1100536,P-1,3.938123627227351,0.023934720468750115,0.9337,3.73347638,False,True
4117,Li9Mn2Co5O16,mp-1176196,P1,4.136235095643445,0.11438525375000008,0.12200000000000033,2.64070067,False,True
4118,Li3Fe2(SiO4)2,mp-760096,Pc,2.7410292510303806,0.06231394400000756,1.6844000000000001,1.58730835,False,True
4119,Li3Ti(Si2O5)3,mp-757542,Pnma,2.6884487543889617,0.056971573453331814,0.10559999999999992,5.54477536,True,True
4120,Li2AlFeO4,mp-772267,Pc,3.0112795072468783,0.017531889999999883,2.9465999999999997,1.14296088,False,True
4121,Li7Mn2(CoO4)3,mp-1174514,P-1,4.073676263819084,0.07968705333333403,0.8433999999999999,3.27710254,False,True
4122,Li5Mn2CoO8,mp-1174411,Pm,3.853773881836288,0.0899432918750005,0.3057999999999996,2.81087557,False,True
4123,Li7V3P8O29,mp-850710,P1,2.5903607714176453,0.05895082088209058,0.1891999999999998,1.51150075,False,True
4124,Li5Mn4(P2O7)4,mp-1177392,P1,2.9661036431390078,0.03840092850001309,0.4683999999999999,1.94622916,False,True
4125,Li2PdO3,mp-532526,P1,4.886013246854296,0.04229902611111047,0.0,2.59560585,False,True
4126,Li2AlNiO4,mp-756603,Pc,3.172926595342125,0.07700053885416658,1.5284,1.39046322,False,True
4127,Li7VO5F,mp-759471,P1,2.5850006741070604,0.06689204553571404,1.9825,1.32128399,False,True
4128,Li4CoO3F,mp-780117,P1,2.735583671175529,0.10559530999999645,1.3648,0.50266976,False,True
4129,Li3MnCoO5,mp-1174306,C2/m,3.792342534380185,0.21934708149998983,0.0,1.72982292,False,True
4130,Li2CoP2O7,mp-31604,P2_1/c,3.0200071933852426,0.03637866805553536,2.8244999999999996,1.65295637,False,True
4131,Li3Co2(PO4)3,mp-26087,P2_1/c,3.05152400515119,0.019178553531245868,0.8677999999999999,0.89490954,False,True
4132,Li4MnCo2O7,mp-1174714,P1,4.147784063618609,0.10316324285714185,0.04319999999999968,2.7894654,False,True
4133,Li4Co(PO4)2,mp-761656,P-1,2.936790789887268,0.061246401333339584,2.8352,1.96894493,False,True
4134,Li2CuPO4,mp-755445,Pm,3.376452569301667,0.06547874406250109,0.9028999999999998,4.14563231,False,True
4135,Li3MnCoO5,mp-1174074,C2/m,4.00286662366692,0.09330320399998904,0.6496,3.16933471,False,True
4136,Li3MnCoO5,mp-1174240,C2/m,3.9070702313803602,0.10960721449998978,0.2067000000000001,2.91402881,False,True
4137,Li9Mn2Co5O16,mp-1375814,P-1,4.210396432159484,1.1781098487500001,0.0,3.19845395,False,True
4138,Li12Mo5O17,mp-1199885,P-1,4.1828423005074304,0.005394878529410896,1.2811,3.37071684,False,True
4139,Li5V(SiO4)2,mp-752704,C2,2.544573491823004,0.04490597468747293,0.21829999999999972,3.34084426,False,True
4140,Li5GaO2,mp-558082,P4_122,2.010833894286237,0.2856214815624991,0.2996,0.97456185,False,True
4141,Li6Cr2O7,mp-770924,C2/c,3.174620793208352,0.11607318666666622,0.0,2.73057558,False,True
4142,Li9Mn2Co5O16,mp-1175843,P-1,4.074633909362075,0.1053201284375005,0.0,2.43752307,False,True
4143,KNa2Li3Zr2(Si2O5)6,mp-851120,P6/mcc,2.7112395362379975,0.0581871187499976,0.0,5.72974242,False,True
4144,Li7Cr3Co(PO4)6,mp-780115,R3,2.9531144805250302,0.0743861353048807,2.4409,1.98555032,False,True
4145,Li3Mn(BO3)2,mp-770906,P2_1/c,2.666064790571835,0.02922879708333337,0.9802999999999997,2.29607869,False,True
4146,Li32Mn11Cr5O48,mp-1177783,P1,3.688315728317986,0.03639367734375121,0.0,3.08928425,False,True
4147,Li9Mn7O16,mp-1100490,C2/m,3.927587602619826,0.05075967109374968,0.011299999999999866,3.10662178,False,True
4148,Li3Ni2O2F3,mp-753703,I4/mmm,4.199766018846456,0.034348318000000155,2.2142,3.31813187,False,True
4149,Li2MnSiO4,mp-768020,Pna2_1,3.0368916582846825,0.01962935218749884,2.8232,2.03505014,True,True
4150,Li9Mn2Co5O16,mp-1100645,Cm,4.132569667367854,0.10747791968750064,0.0,2.48284328,False,True
4151,Li2VCO5,mp-1177806,P1,3.1465026372959137,0.037473726111115546,1.6756000000000002,1.98477966,False,True
4152,Li3Cr2P5O16,mp-26425,P2/c,2.745500999449599,0.03671120310896914,2.3727,2.89606521,False,True
4153,Li4MnP2O9,mp-757767,Pbca,2.7359143720049377,0.061504433281250215,0.0,1.9452849,False,True
4154,Li3Co2OF5,mp-849429,F222,3.700654441909442,0.09972086159090754,1.5355999999999999,1.23163959,False,True
4155,Li9Mn2Co5O16,mp-1175562,P1,4.239259627901292,0.06299381562500006,1.3083999999999998,3.53736241,False,True
4156,Li6Mn3CoO10,mp-1174826,C2,3.952296033543334,0.066572818874997,0.5675000000000003,2.92720637,False,True
4157,KLi6BiO6,mp-23582,R-3m,4.077835646068977,0.0,1.413,1.04648372,False,True
4158,NaLi3GeO4,mp-561254,I4_1/a,2.946077369060376,0.0,3.6355,-0.03067715,True,True
4159,Li4Bi2C4SO16,mp-768991,Fddd,3.725424102453774,0.07561867814814693,1.9868,0.85813446,True,True
4160,Li9Mn2Co5O16,mp-1175712,P1,4.284895278363707,0.06689034500000002,0.9102000000000001,2.68119765,False,True
4161,Li2Nb(PO4)2,mp-26721,P2_1/c,3.037503297219791,0.06083295125000454,0.09200000000000008,3.16797478,False,True
4162,Li2W(OF2)2,mp-772400,Pbcn,4.803260354481278,0.003437609236103256,3.7916000000000003,-0.80204699,False,True
4163,Li7Fe4(PO4)6,mp-1177121,P1,2.948364106453903,0.02327957042685025,1.6567,1.80937061,False,True
4164,Li6Bi(BO3)3,mp-770280,P2_1/c,3.5189200081103165,0.008981870789469326,3.8616,1.04685325,True,True
4165,Li6MnO4,mp-770533,P4_2/nmc,2.6811392875940587,0.0,2.6186,1.25202505,False,True
4166,Li7Mn4CoO12,mp-1175255,P1,3.906374741644625,0.08414873760416519,0.0,2.66679425,False,True
4167,BaLi2NiO3,mp-756841,Pnma,4.331050123166697,0.08355952357142815,2.2093,1.38351213,False,True
4168,Li4Cr(PO4)2,mp-25903,P2_1/c,2.5631588046391642,0.04376450579166313,1.4268,2.51710753,False,True
4169,Li4Fe(SiO4)2,mp-752650,P-1,2.7874864586156436,0.09308754805555264,0.21960000000000002,1.08527409,False,True
4170,Li3MnV(PO4)3,mp-775435,P1,3.168068618384911,0.0574990729374969,0.0,2.78527378,False,True
4171,Li5V3P8O29,mp-765155,P1,2.577068375216326,0.03256661609259126,0.5869,0.75672969,False,True
4172,Li3V2(PO4)3,mp-756924,C2,2.888833012600772,0.05562286925002713,1.3058999999999998,3.81138695,True,True
4173,Li6Fe3Sn(PO4)6,mp-778734,P1,3.142096759551342,0.0536617165000024,1.6764000000000001,2.49660179,False,True
4174,Li7Mn5O12,mp-1175363,P2/m,3.88921057820488,0.025763791875000663,0.8776999999999999,2.85217166,False,True
4175,Li6V2OF11,mp-753701,C2,2.9512972711007524,0.025842700749992176,1.1776,0.317187,True,True
4176,Li9Co7O16,mp-1175466,R-3m,4.395346305261673,0.07135747968750028,0.0,2.25936144,False,True
4177,Li12(WO4)7,mp-1210972,P-43m,4.902167108994205,0.06933847860992426,0.0,-0.39376189,False,True
4178,Li32Mn11Cr5O48,mp-778090,C2,3.6922883832180244,0.026608738593750125,1.1614,3.05304503,False,True
4179,Li3Bi(BO3)2,mp-768738,P-1,4.069347970193831,0.04634770229166385,2.5439,1.30968457,False,True
4180,Li7Nb2Fe3O16,mp-754259,Cm,3.8272622599162083,0.12832223862500403,0.0,1.26511593,False,True
4181,Li3AlGeO5,mp-6765,Pna2_1,3.0806433122873162,0.0,3.9578999999999995,0.76675991,False,True
4182,Li6Mn5(P2O7)4,mp-504387,P-1,2.960588070156861,0.0409508279787234,3.6837999999999997,2.05092981,False,True
4183,Li5MnHO4,mp-759487,Pnma,2.329363767248503,0.09508515803030271,0.929,2.10795309,True,True
4184,Li10Zn4O9,mp-3297,P4_2/nmc,3.656501794710325,0.0,2.329,0.31932731,True,True
4185,Li2MnPCO7,mp-1177960,P1,2.6919657570046605,0.024171680624996306,1.8388,1.25754753,False,True
4186,Li7Mn2(CoO4)3,mp-1175049,P1,4.060435032552626,0.10682103416666688,0.13200000000000012,2.73668949,False,True
4187,Li23Ni17O40,mp-705828,P-1,4.453761707794264,0.02162028595833121,0.0,3.17596985,False,True
4188,Li2Si4NiO10,mp-1261461,P2_1/c,2.312352073767915,0.07694441308823219,4.2622,4.36684364,False,True
4189,Li6V2OF11,mp-765834,P1,2.9161474079868572,0.015054038749991783,2.0546,-0.16176158,False,True
4190,Li4V3P8O29,mp-773489,P1,2.534153565757439,0.050763341742422696,0.8914000000000001,0.36430572,False,True
4191,Li2NiO2F,mp-1283454,P1,3.9682717574392217,0.004939723888885084,0.055299999999999905,2.81095587,False,True
4192,Li3Rh(N3O8)2,mp-1222915,P2_1/c,1.8622997415273717,0.5429530524038393,0.1975,-1.98641998,True,True
4193,Li9Mn2Co5O16,mp-1343228,P1,4.24924189907287,1.1982623540625008,0.0,3.39240073,False,True
4194,Li3MnCoO5,mp-1174020,P1,3.995407910813123,0.06977679099999001,0.5160999999999998,2.43903911,False,True
4195,Li7Mn5O12,mp-1175328,P-1,3.8945988257143838,0.040602121458332974,0.0,3.11862952,False,True
4196,Li4V3P8O29,mp-1177198,P1,2.4960255091906385,0.04711806140151342,0.8648999999999999,0.17838921,False,True
4197,Li9Mn2Co5O16,mp-1176109,P1,4.134421715914282,0.13958158281250022,0.0,2.55132305,False,True
4198,Li3VOF5,mp-757350,Imm2,2.365935411722164,0.09295842050000402,2.718,-1.04629323,False,True
4199,Li7Mn4CoO12,mp-1175201,P1,3.9666016228738648,0.05615800760416523,0.4598,3.55388347,False,True
4200,Li5FeO3F2,mp-755038,Cm,2.68449978346511,0.0875804867045451,2.4364999999999997,0.87272322,False,True
4201,Li4Mn3O7,mp-1174285,P-1,3.917085722543944,0.027696310357142373,0.9327999999999999,3.76161145,False,True
4202,Li3MnV(PO4)3,mp-1177602,P1,2.874799391126918,0.050299350312496216,0.5108000000000001,1.81541469,False,True
4203,Li3Cr2P2(CO7)2,mp-763241,P1,2.687390161330924,0.04810254202897113,0.11119999999999997,0.45291427,False,True
4204,Li4VP6(H4O11)2,mp-780492,P-1,2.383915621002373,0.06098172781504019,2.4366,3.04847581,False,True
4205,Li9Mn2Co5O16,mp-1100662,Cm,4.159670558224908,0.09516406125000021,0.0,2.9679268,False,True
4206,Li2SiNiO4,mp-1302404,C2,3.1101700584570398,0.03333980906249945,3.8209,1.65626897,False,True
4207,Li3FePCO7,mp-768937,Pm,2.6647596390179777,0.10500564115384758,3.6300000000000003,1.70527971,False,True
4208,Li2MnO2,mp-755372,Immm,3.0074052925868826,0.05341827133333332,0.0,2.29968793,False,True
4209,Li7Mn2(CoO4)3,mp-1175051,Cm,3.923956616347364,0.20478571000000034,0.0,2.21450994,False,True
4210,Li3V2(O2F)2,mp-759574,P-1,3.2463997566769094,0.05852252397726154,0.8582999999999998,1.88644549,False,True
4211,Li3V2P4(HO8)2,mp-1177498,P1,2.9138291016143847,0.0689305898148147,0.8334000000000001,1.97866239,False,True
4212,Li3Cr2(PO4)3,mp-26605,C2,2.9868858483292438,0.03324740037500362,2.8815,1.58986569,True,True
4213,Li7Mn4(P2O7)4,mp-1176907,P2_1,2.9480982897982377,0.014745603989333667,0.30179999999999985,1.69687021,False,True
4214,Li3MnPCO7,mp-25461,P2_1/m,2.7027806908170926,0.049749888076924265,3.6835000000000004,1.94145188,False,True
4215,Li3Ni(PO4)2,mp-32398,P2_1/c,3.185969348172182,0.06388258558035087,0.0,1.87283215,False,True
4216,Li9Mn2Co5O16,mp-1100652,Cm,4.170110191216741,0.12398950875000025,0.08630000000000004,2.65658295,False,True
4217,Li6V3P8O29,mp-1176912,P1,2.5965505091407532,0.025566808324268386,1.3642,0.70765209,False,True
4218,Li9Mn2Co5O16,mp-1175599,P1,4.2277231889269595,0.06849323187500023,0.5956000000000001,2.92176775,False,True
4219,Li3CoSiO5,mp-758411,Pna2_1,2.919815081736911,0.0436875159999941,0.8665,0.9927074,False,True
4220,Li2Fe(PO3)4,mp-758865,P-1,2.606632329911308,0.028713212061415305,4.3505,1.26381066,False,True
4221,Li7Mn2(CoO4)3,mp-1174865,P-1,4.011618465156093,0.13629800958333416,0.0,2.73855225,False,True
4222,Li24Ti5Cr7O36,mp-768397,P1,3.482712195721709,0.015646272951394202,1.2071999999999998,3.28724155,True,True
4223,Li9(CoO4)2,mp-776979,Pca2_1,2.602724287730544,0.05347285315788941,0.4337,0.45163645,False,True
4224,Li2Co(CO3)2,mp-753286,Fdd2,2.5616932993096517,0.07389256545454881,1.7435,0.5342854,True,True
4225,Li3Bi2(PO4)3,mp-759290,C2/c,4.371497118881167,0.08227909700000069,3.5627000000000004,1.91793469,True,True
4226,Li4MnCo2O7,mp-1174421,P-1,4.11982706258672,0.0715394914285703,0.5966,2.96399656,False,True
4227,Li2V(PO3)4,mp-26689,C2/c,2.4982998085385737,0.026010373596498937,1.2918000000000003,4.28750305,False,True
4228,Li3MnV(PO4)3,mp-775267,P1,2.8996698429301957,0.03303859343749682,0.3627,1.67735945,False,True
4229,Li2Mn(PO3)4,mp-31979,P2_1/c,2.4069362669715266,0.042273667456194985,4.3708,0.70176812,False,True
4230,Li2CrCSO7,mp-768607,P2_1/m,2.482144395210857,0.10624671341678393,1.9799000000000002,2.07993405,False,True
4231,Li7Mn2(CoO4)3,mp-1175039,P1,4.034635059819576,0.10799966208333345,0.0,2.56065846,False,True
4232,Li2Si2NiO6,mp-1986763,Cc,2.8701898087418845,0.07338610204544072,3.9212999999999996,5.21428228,True,True
4233,Li7MnNi3(PO4)6,mp-780131,R3,2.9729093622898084,0.0783333117428846,0.0,1.17350387,False,True
4234,Li7Mn5O12,mp-1644001,P1,3.8732992449096413,0.027454355208332615,1.0619999999999998,3.71402827,False,True
4235,Li4V2(PO4)3,mp-760234,Pbcn,2.8164704507378056,0.0305784169047687,0.10529999999999973,3.3975904,False,True
4236,Li5LaO4,mp-780259,P4_2/nmc,3.3879521479241994,0.04910249568749858,3.3999,1.78359915,False,True
4237,Li2CoO2,mp-755133,Immm,3.5817519359258525,0.09873828837500032,0.48819999999999997,3.16801905,True,True
4238,Li9Co7O16,mp-1175380,C2/m,4.3465051453158825,0.05298786,0.7593000000000001,2.42781209,False,True
4239,Li7Co(O2F)2,mp-849470,P1,2.5426235077111343,0.08932093607142555,1.2277,1.64789854,False,True
4240,Li3MnV(PO4)3,mp-1177562,P1,2.9562800142715826,0.0632064513124968,0.5353000000000003,2.08046125,False,True
4241,Li7Ti5O12,mp-779455,C2/m,3.7135085897565396,0.014344561874996664,0.0,5.64503698,False,True
4242,Li9Mn2Co5O16,mp-1175640,P-1,4.2269639081645884,0.08827480062500026,0.0,2.51790183,False,True
4243,Li2CrO2,mp-1281428,P2_1/m,3.2431487173280855,0.08563658949999997,2.5092999999999996,2.28546306,False,True
4244,Li2MnO2F,mp-756688,Cmcm,3.3102851670978564,0.07714807624999587,0.5057,1.25080117,False,True
4245,Li3MnCoO5,mp-1174052,P1,4.014449465972376,0.06530646699998943,1.0711,3.39564005,False,True
4246,Li2AlNiO4,mp-770357,Pna2_1,3.1893727636720794,0.0838603372916662,1.5252000000000001,1.52548867,False,True
4247,Li5FeO4,mp-779889,Pbca,2.497500164346168,0.08809131699999995,2.6551,0.38717691,True,True
4248,SrLi4NiO4,mp-776394,Pbca,3.566876973309884,0.08648775762500094,2.3487999999999998,1.61876908,True,True
4249,Li3MnPCO7,mp-766686,P2_1/c,2.799512030120132,0.06329715307692396,4.1411,1.64105133,False,True