,formula,mp-id,crystal system,density,energy above hull,band gap,efermi,is gap direct,theoretical
4250,Li5VO4F,mp-761103,P2_1,2.442964529873264,0.04760829704545433,1.522,1.42273175,False,True
4251,Li2CoP2O7,mp-1642784,Cc,3.0766670695992073,0.06837133909720272,3.1138000000000003,2.207719,False,True
4252,Li2MnPCO7,mp-1177908,Pc,2.6974124027117607,0.027050006041663188,1.9910999999999999,0.99410748,False,True
4253,Li3MnPCO7,mp-766690,P1,2.727126795941496,0.06073857788461634,3.0894,5.49897655,False,True
4254,Li2CrO3,mp-775130,C2/m,3.5573328250525114,0.05213008791666507,0.23229999999999995,2.79037163,False,True
4255,Li2PdO2,mp-7608,Immm,4.927262391172839,0.0,1.1973000000000003,2.73987329,False,True
4256,Li6Cr2O7,mp-1368955,P2_1/c,3.173308883819374,0.1158336406666658,1.4932,1.7658716,True,True
4257,Li4MnCo2O7,mp-1174703,P1,4.148725868580986,0.10662631857142646,0.08709999999999996,3.01086631,False,True
4258,Li5Cr2P5O18,mp-725039,P-1,3.059883338722673,2.8378509345000005,0.0,3.60918947,False,True
4259,Li3Cu2P5O16,mp-25871,P2/c,2.9573673570560643,0.038412641346178944,0.0,2.1595166,False,True
4260,Li3V2S2(O4F3)2,mp-769588,P1,2.4530758754953634,0.07250240583332346,1.0314,-0.45597514,False,True
4261,Li6VFeP2(CO7)2,mp-756847,Pm,2.734262059184135,0.055418862940451064,2.6203000000000003,3.43951359,False,True
4262,KLi2Sb(PO4)2,mp-759715,P1,3.1864898137021833,0.08222471591270075,3.4286000000000003,2.19763007,False,True
4263,Li4MnCo2O7,mp-1174671,P1,4.176112739119854,0.07271000249999826,0.9617,3.27986078,False,True
4264,Li9Mn7O16,mp-1100533,P-1,3.9373908928702526,0.043311632968749514,0.0,3.14001796,False,True
4265,Li9Mn2Co5O16,mp-1175930,P1,4.175039522147757,0.08297662187500077,0.6278999999999999,3.3215518,False,True
4266,Li4V3P8O29,mp-1177192,Cc,2.5046555231213152,0.045545709015150315,1.1421,0.06594006,False,True
4267,Li9Mn2Co5O16,mp-1100724,P2/m,4.159864667254394,0.1524079271875003,0.0,2.88926953,False,True
4268,Li3(FeO3)2,mp-760809,C2/c,3.5223350697449014,0.06970713748917579,0.0,1.25233414,False,True
4269,Li7Mn4CoO12,mp-1175277,C2/m,3.957835063542241,0.06034602802083189,0.7693999999999996,3.69912618,False,True
4270,Li3Ni2(PO4)3,mp-705397,C2,3.0322438480353746,0.11021814952082831,3.5801,1.01331341,False,True
4271,Li15Bi4(PdO10)2,mp-25257,P1,5.307943685246758,0.02548431417682906,0.03420000000000001,1.94434823,False,True
4272,Li2CrSiO4,mp-758544,P2_1/c,2.9030831114050866,0.06906328135416206,1.7395999999999998,2.79540163,False,True
4273,Li9Mn2Co5O16,mp-1175728,P1,4.269956219713042,0.05720340250000078,0.9468000000000001,3.48279536,False,True
4274,Li3Sb(PO4)2,mp-774714,P2_1/m,3.3817153301700564,0.06057792142858354,2.9461,2.98681623,False,True
4275,Li5OsO6,mp-1211187,P3_112,5.24650316921474,0.0,0.0,2.61875041,False,True
4276,Li2FeO2,mp-755094,Immm,3.149715646042533,0.0020245374999996457,1.7893000000000001,1.8077272,False,True
4277,Li12MnCo3P4(CO7)4,mp-766814,Pm,2.827963491795459,0.047109558269232465,2.0062,2.38120581,False,True
4278,Li3Fe2P4HO14,mp-753272,P-1,2.8379412268348894,0.04499551236110921,4.0847999999999995,1.23300187,True,True
4279,Li3Sm3(TeO6)2,mp-1211256,Ia-3d,6.099040492035689,0.0,3.4655000000000005,5.82974168,True,True
4280,Li3Mn2O4,mp-673675,I4_1/amd,3.8563752548670602,0.1973464512962959,0.0,3.62798712,False,True
4281,Li3Mn2(PO4)3,mp-758956,P2/c,2.9965474883638676,0.0484908176250487,0.8166000000000002,1.62847337,True,True
4282,Li3Fe2(SiO4)2,mp-1177678,C2,2.928259423186863,0.06972985366667395,0.0,2.47258163,False,True
4283,Li2Sc(PO4)2,mp-1193287,P2_1/c,2.6243339611900445,0.06211770144230666,0.2571,0.51759936,False,True
4284,Li2AlCoO4,mp-770610,P2_1/c,3.077376824416958,0.08332015843749918,1.5131999999999999,1.200786,False,True
4285,Li2CrPO4F,mp-752727,P1,2.9629279457295716,0.06728173131945159,2.0187,5.13966652,True,True
4286,Li2VO2F,mp-763182,Pm,3.330026353911469,0.10194314541666305,1.5680000000000005,2.92371341,False,True
4287,Li5Mn3O8,mp-1174492,R-3m,3.825843173921048,0.05673731031250018,0.0,3.12053746,False,True
4288,Li7Co5O12,mp-1174305,P-1,4.250295493715216,0.07722446874999722,0.0,2.7078859,False,True
4289,Li4MnCo2O7,mp-1174760,P1,4.120702362718647,0.0930880796428557,0.0,3.10851991,False,True
4290,Li3VCrP2(HO5)2,mp-802414,P1,3.0119868232031677,3.185770744512669,0.0,3.46056757,False,True
4291,Li3Si2(NiO4)2,mp-756019,P1,3.1450410345058164,0.0848577952888876,1.0103000000000002,1.65263168,False,True
4292,Li4SiGe3O10,mp-1222533,P1,2.959737041606266,0.04155800046295788,3.5858999999999996,-0.66720924,True,True
4293,Li32Ti5Cr11O48,mp-777532,C2,3.5121741278430716,0.02908101867187174,0.8324000000000003,2.33743492,False,True
4294,Li4Cr(PO4)2,mp-1177450,P-1,2.816343913243045,0.055133134458330346,3.2317,2.80678351,False,True
4295,Li2Ni(CO3)2,mp-753221,Fdd2,2.7009046588582186,0.07718248590909482,2.9454,0.45958813,False,True
4296,Li8Nb(FeO4)3,mp-754201,P-1,3.9658052870282536,0.09569098020833522,0.007599999999999829,1.93257774,False,True
4297,Li9Mn2Co5O16,mp-1176290,P1,4.174182665889974,0.08850472500000084,0.0,3.21946232,False,True
4298,Li5Mn2P2(CO7)2,mp-768855,P2_1/m,2.69911808021211,0.04520595049999887,0.0,2.19838263,False,True
4299,Li2VPO4F,mp-25403,P1,3.0165181736259643,0.036541770792186234,1.1109999999999998,4.79486058,False,True
4300,Li6Mn3P8O29,mp-704284,P1,2.6841726820294967,0.01385110524002453,0.7561000000000001,0.69416303,False,True
4301,Li9Mn2Co5O16,mp-1175982,P1,4.189923179895318,0.09027008031250006,0.48580000000000023,3.11584021,False,True
4302,Li5Mn2CoO8,mp-1174361,P-1,3.87867277725309,0.06372277250000025,1.2120000000000002,2.37194061,True,True
4303,Li5Bi(P2O7)2,mp-1177146,P-1,3.4962285213211994,0.046153516423610874,4.1825,1.78776799,False,True
4304,Li9Mn2Co5O16,mp-1176063,P1,4.1626278739577165,0.1014529131250006,0.046499999999999986,2.72411566,False,True
4305,Li3Mn2(SiO4)2,mp-769538,P2_1,3.000817440787117,0.09364591069443318,0.0,1.90751248,False,True
4306,Li9Mn2Co5O16,mp-1100596,Pm,4.204603757089777,0.08553420000000056,0.0,3.320362,False,True
4307,Li3FePCO7,mp-766788,P1,2.7999509211830085,0.053311236153847474,3.142,5.38987879,False,True
4308,Li3Mn2P2(O4F)2,mp-759305,Pc,3.094657612847794,0.022491312941172126,0.24719999999999986,2.28659428,False,True
4309,Li3VB4O9,mp-768885,P2_1/m,2.5750989790338417,0.05154839132354283,2.7324,1.95207633,False,True
4310,Li4CuSbO6,mp-1211177,C2/c,4.33882681916828,0.018739111249999496,0.5709,3.48832137,False,True
4311,Li3MnV(PO4)3,mp-778607,P1,3.03625426021328,0.03747237281249749,0.06810000000000027,2.28574682,True,True
4312,Li4V3P8O29,mp-765395,P1,2.54931616657552,0.046301468901513765,0.8230999999999999,0.42558256,False,True
4313,Li3Sb(PO4)2,mp-777071,P2_1/c,3.5048176945800082,0.07356915750001214,4.2233,2.97454131,False,True
4314,Li8CoO5F,mp-1316403,P1,2.66236688793988,0.07151509566666014,0.9538999999999997,1.29531678,False,True
4315,Li3Co2O5,mp-1174181,R-3m,4.052464405768434,0.23907477500000063,0.0,2.09602538,False,True
4316,Li3Fe(Si2O5)3,mp-757427,Pnma,2.735060774225706,0.03989895479999461,4.748600000000001,1.46842312,True,True
4317,Li3MnPCO7,mp-756499,Pmn2_1,2.5959003951123147,0.08501707576923234,3.7453000000000003,1.78276861,False,True
4318,Li3CrSi2O7,mp-758247,Pnma,2.874205766050718,0.05947436499999714,2.3964,2.27337465,False,True
4319,Li2CrSiO4,mp-758490,Pca2_1,2.697357833738811,0.09439889104166266,2.6298000000000004,1.78416744,False,True
4320,Li3Co(NO2)6,mp-772317,R-3m,2.509402822227,0.1105797993831148,2.3954999999999997,0.36044803,True,True
4321,Li2Mn(PO4)2,mp-753313,P2_1/c,2.889317932189883,0.025116169583334624,0.24629999999999996,1.02122057,True,True
4322,Li9Mn2Co5O16,mp-1175393,P-1,4.17786177545012,0.06184292843750061,1.2477999999999998,3.3945272,False,True
4323,Li2CoP2O7,mp-26089,C2/c,2.632597496292656,0.013769648472202967,2.6793,0.66258075,False,True
4324,Li4Ni(PO4)2,mp-26369,P2_1/c,2.7107183658865197,0.019272508999999438,3.5313999999999997,0.735451,True,True
4325,Li2Cr(H2O3)2,mp-505245,P2_12_12_1,2.0817813333097046,0.01896317782051593,3.052,-1.69965523,False,True
4326,Li4MnCo2O7,mp-1174755,P1,4.089833092490887,0.127481170714284,0.02970000000000006,2.72685,False,True
4327,Li24Ti5Cr7O36,mp-768407,P1,3.4814385392464837,0.016181455868059302,1.2211000000000003,2.07833015,False,True
4328,Li2FeP2O7,mp-697811,P1,2.8994929598129815,0.02997413159719109,3.7642,2.21818962,True,True
4329,Li2Mn(SiO3)2,mp-764791,Cc,2.698791197754243,0.03963062128787698,3.2277999999999993,1.60365616,False,True
4330,Li6Fe2B4SO16,mp-770526,Fd-3,2.6619685739307677,0.08979766311494597,0.0,0.72561277,False,True
4331,Li3VO3F,mp-801385,P1,3.1814452685426455,0.5533364134375001,0.041999999999999815,2.37340687,False,True
4332,Li4Ni3P4O15,mp-540518,Pna2_1,3.242987544426164,0.035170394198718036,3.7007000000000003,3.02500513,True,True
4333,Li5Sm3(SbO6)2,mp-774794,P1,5.908284832629611,0.02506301130681532,3.3766000000000003,2.86775672,False,True
4334,Li3V2P4(HO8)2,mp-780314,P2_1,2.9118898403855646,0.06415100833333298,0.9941999999999998,2.04471398,False,True
4335,Rb2Li2GeO4,mp-8450,P-1,3.7606258133541033,0.0,3.2731,0.073482,False,True
4336,Li6MnV3(PO4)6,mp-1177008,P1,2.8880838467122256,0.05845189426560893,0.27360000000000007,2.29621704,True,True
4337,Li7Mn4CoO12,mp-1175282,C2/m,3.8732121743508046,0.110267178437498,0.1644000000000001,2.72585805,False,True
4338,Li3Mn2O5,mp-1173991,P-1,3.8405516135140236,0.05903139700000004,0.6688000000000001,2.72608057,False,True
4339,Li3CuPO5,mp-758891,Pna2_1,3.0529745386676486,0.09313768749999962,0.0,2.42677835,False,True
4340,Li2NiPO4F,mp-25397,P1,3.3316337743661792,0.030360165833352326,0.30089999999999995,2.7487115,False,True
4341,Li2MnO2F,mp-765951,C2,3.5667642791950827,0.07967824041666294,0.5027000000000004,2.07168394,False,True
4342,Li3Co2O5,mp-1174213,P-1,4.093936034418524,0.12126339350000048,0.0,1.73790263,False,True
4343,Li32Mn3Cr13O48,mp-777826,P1,3.594643442377139,0.02887018791666751,1.0329000000000002,2.10754904,True,True
4344,Li3CoPCO7,mp-766703,P2_1/c,2.92522849606949,0.07216590903846143,2.4064,3.99925701,True,True
4345,Li2CoO3,mp-1306461,P-1,3.8114043940648763,0.0688920387500005,0.30840000000000023,1.86361091,False,True
4346,Li3V2O6,mp-762268,P1,3.393073233256534,0.08165162409091575,1.3016999999999999,2.19421746,False,True
4347,Li2Mn(BO3)2,mp-766466,P2_1/c,2.834256386120734,0.08456812249999768,1.2393,0.77024052,False,True
4348,Li32Mn3Cr13O48,mp-777827,P1,3.6099764904297675,0.028443452812500603,0.9956999999999998,2.20254485,False,True
4349,Li4V3P8O29,mp-1177215,P1,2.5004765035418974,0.047504836742422896,0.8526,0.20564273,False,True
4350,Li9Co7O16,mp-1175491,P2/m,4.220430004742394,0.11806655749999972,0.26580000000000004,2.53346408,False,True
4351,Li2IO6,mp-1211077,P6_1,3.1373734516115297,0.26915466885416617,0.12769999999999998,-0.32257007,False,True
4352,Li5Cu(PO4)2,mp-26247,P1,2.896045224512235,0.032181375156250525,1.7933,3.85988792,False,True
4353,Li2CrO4,mp-758665,P-1,2.322955574885887,0.04958520023809587,2.6527,-1.57042712,False,True
4354,Li9Mn2Co5O16,mp-1175631,P1,4.167958383871661,0.08769393843750084,0.1412,2.7049724,False,True
4355,Li2MnP2O7,mp-775903,P1,2.7271098004505054,0.017706766874998614,3.7889,1.77980173,False,True
4356,Li4V3P8O29,mp-1177216,P1,2.510435884035027,0.042433499128786245,1.0751,0.1001271,False,True
4357,Li8Co(O2F)2,mp-761056,P-1,2.6278317829781357,0.12318288049999992,2.2184999999999997,1.13126841,False,True
4358,Li3Fe(PO4)2,mp-759639,Pc,2.5588497638734418,0.03518510749999759,1.8868,0.55062405,True,True
4359,Li2NiO2,mp-19308,P-3m1,4.209569942368008,0.00254169099999757,0.9116000000000004,3.66334302,False,True
4360,Li4V3P8O29,mp-1177201,P1,2.536673991291155,0.0512549292424227,0.8312999999999999,0.24573738,False,True
4361,Li3Fe2(SiO4)2,mp-774106,Pc,2.9912875953815345,0.056953178000007654,1.0827,2.01573418,False,True
4362,Li4V3P8O29,mp-851114,P1,2.5391067329636643,0.05023296412878597,0.5469,0.56849226,False,True
4363,Li7Co5O12,mp-1174384,P-1,4.167627933487701,0.09921550916666444,0.0,1.99043978,False,True
4364,Li3Bi(BO3)2,mp-777851,P-1,3.8334985966593296,0.0751197364583307,2.9356999999999998,1.00627935,False,True
4365,Li2FeO2F,mp-849459,Cc,3.5955075492357667,0.06526764124999929,1.4184,1.86192013,True,True
4366,Li9Mn2Co5O16,mp-1175510,P-1,4.177797097616579,0.07774483437500024,0.0,2.6386373,False,True
4367,Li9Co7O16,mp-1175447,C2/m,4.319576489873824,0.056810565624999754,0.016699999999999715,2.08142278,False,True
4368,Li4MnCo2O7,mp-1174381,Cm,4.081104677060205,0.1453157764285704,0.0,2.52370642,False,True
4369,Li2V(PO4)2,mp-763559,P-3,2.8076823986644097,0.053061733525631816,1.0897000000000001,1.08004095,False,True
4370,Li4Fe2P4H3O16,mp-1177422,P1,2.8226709334048623,0.02142687025861445,1.5845,1.77980215,False,True
4371,Li19Cu4(HO2)8,mp-1178316,P1,2.397843336571496,0.05556519433510321,0.0,0.54818944,False,True
4372,Li5GaO4,mp-4657,Pbca,2.9893850617570954,0.0,3.8563,-0.17010656,True,True
4373,Li3Cr2(PO4)3,mp-26489,C2/m,3.362731227559582,0.04357401675000361,1.8925000000000005,2.69630367,False,True
4374,Li8NbNi3(PO4)6,mp-759457,R3,3.0458643476677163,0.09710259181546999,0.2894999999999994,4.11894716,False,True
4375,Li3CrSiO5,mp-762413,P-1,3.5947097078030565,0.09705467799999834,2.678,3.87347561,False,True
4376,Li9Mn2Co5O16,mp-1175827,P1,4.185791690399932,0.10896239343750036,0.0,2.91244425,False,True
4377,Li2Mn(PO4)2,mp-860789,P-1,2.8496663161580416,0.04058981112179705,0.8966000000000001,0.97577494,False,True
4378,Li3CoPO5,mp-757007,Pna2_1,2.9741110220101508,0.05991264600000257,0.0,4.66313011,False,True
4379,Li6Fe(OF)3,mp-780876,R3m,2.2631882851784817,0.09342962125000387,2.7067,-0.74134529,True,True
4380,Li5Mn3O8,mp-1174553,R-3m,3.6238964529348032,0.27378432718749934,0.0,2.42668639,False,True
4381,Li9Mn2AlO8,mp-770680,Pnma,2.686339884022002,0.0673275812291676,2.1143,1.71000328,False,True
4382,Li9Mn2Co5O16,mp-1100744,C2/m,4.17034826135822,0.1271995984375005,0.0,3.05985607,False,True
4383,Li9Mn4(BO3)8,mp-759917,P1,2.810541059843487,0.07098230786667958,0.6737,1.45387083,False,True
4384,Li9Co7O16,mp-1175529,P2/m,4.242621979082611,0.07086646812499975,0.7257,2.72327649,False,True
4385,Li13Mn2O9,mp-764770,P1,2.4321945022969786,0.051105225416674394,0.010199999999999987,0.99092727,False,True
4386,Li3MnV(PO4)3,mp-1177684,P1,2.8884938731452627,0.035004068562496826,0.04079999999999995,1.9238329,False,True
4387,Li2FeSiO4,mp-753118,P3_121,3.1123701050033783,0.048253351770833675,3.2064000000000004,2.10564654,False,True
4388,Li2Sn(PO3)4,mp-26855,P4/nbm,3.2462113192798947,0.04368685638158176,3.9056,2.98837387,False,True
4389,Li7Mn2(CoO4)3,mp-1175099,Cm,4.064266313896782,0.1236878800000012,0.0,2.7326102,False,True
4390,Li9Co7O16,mp-1175415,C2/m,4.417885203917189,0.036824085624999725,0.04640000000000022,2.24892834,False,True
4391,Li5CoO4,mp-779022,Pbca,2.6264023780354293,0.06467682412499709,1.5191999999999999,0.80923058,False,True
4392,Li6MnV3(PO4)6,mp-1176988,P1,2.9996296068614936,0.020707170890609916,0.5455999999999999,2.00485659,False,True
4393,Li4V3P8O29,mp-765371,P1,2.538102452425801,0.04960958640151425,0.4375,0.59952074,False,True
4394,Li10Si2PbO10,mp-553950,C2/m,3.490102149985163,0.0036918968070640545,3.1471000000000005,1.66773919,True,True
4395,Li7Mn2(CoO4)3,mp-1174919,P1,4.1054345601641105,0.06462137708333415,1.2104,3.43846592,False,True
4396,Li9Co7O16,mp-1175464,P-1,4.207952263619979,0.09720519968750008,0.31210000000000004,2.21728832,False,True
4397,Li3FePCO7,mp-754987,P-1,2.7187808802454816,0.03790531288461629,0.0,1.40286155,False,True
4398,Li3Cr(PO4)2,mp-773435,Pca2_1,3.032558152831543,0.09546696633928153,2.0410000000000004,3.00791527,False,True
4399,Li5Mn2CoO8,mp-1304043,C2/m,3.941264375326839,0.05169973343750023,0.9299,3.50672598,False,True
4400,Li3Fe(PO4)2,mp-758847,P1,2.743720191985889,0.08452016678571184,2.24,1.15527482,False,True
4401,Li2CrP2O7,mp-781504,P2_1/c,2.8619720198636243,0.05433881000002572,2.3926,2.82756551,False,True
4402,Li2Mn(PO4)2,mp-1101557,P2_1,3.0259137649467798,0.03896253919871917,0.6558999999999999,1.34223266,True,True
4403,Li6MnV3(PO4)6,mp-887337,P1,2.9184643516106763,0.055315274140609105,0.34850000000000003,2.06842062,False,True
4404,Li5V3P8O29,mp-765045,P1,2.5548589146190537,0.037859269981480814,0.7646,0.68405825,False,True
4405,Li9Mn2Co5O16,mp-1176275,C2/m,4.211231156965816,0.05968194031250018,0.9347000000000003,2.3525386,False,True
4406,Li9Mn2Co5O16,mp-1100701,P2/m,4.182159321085489,0.09420690750000027,0.6416000000000004,3.36328045,True,True
4407,Li8IrO6,mp-8469,R-3,4.565316982503063,0.005303040733334541,0.0,2.57957238,False,True
4408,Li2V(PO4)2,mp-762897,P2_1/c,2.7036562315378347,0.03156348891024763,1.0711,0.89914049,False,True
4409,Li9Mn2Co5O16,mp-1100663,Cm,4.16958161215661,0.10962314750000068,0.09889999999999999,3.25686013,False,True
4410,Li8CoO5F,mp-1305683,P1,2.657618066965503,0.06780990116665997,1.0674000000000001,1.68951589,False,True
4411,Li5V4O8,mp-771611,R3m,3.867675599229569,0.0538155850000015,0.6741000000000001,4.64118352,False,True
4412,Li24Ti7Cr5O36,mp-768406,P1,3.4356503395697877,0.015511782743052649,1.2200000000000002,2.03351748,False,True
4413,Li7Mn2(CoO4)3,mp-1174880,P-1,3.9771282778036627,0.13268665458333384,0.07230000000000025,2.60813352,False,True
4414,Li3Fe(BO3)2,mp-779306,P2_1/c,2.857707008367115,0.07160857812499977,1.911,3.41834315,False,True
4415,Li3NiPCO7,mp-766671,P1,2.9427440015541544,0.05350361269231119,2.8919000000000006,1.74518589,False,True
4416,Li12Mn3V5(PO4)12,mp-779301,P1,2.922341377654972,0.025039315835915232,0.25170000000000026,1.8620073,False,True
4417,Li4MnCo2O7,mp-1174542,C2/m,4.109740898422663,0.06928661999999886,0.0,2.43392472,False,True
4418,Li7Mn2(CoO4)3,mp-1174876,P-1,4.022950776755975,0.13795807333333343,0.0,2.44732763,False,True
4419,Li4Mn3O7,mp-1174297,P-1,3.911542516756304,0.030429804999998922,0.8592,3.74603451,False,True
4420,Li2V(Si2O5)3,mp-1249301,Cc,2.2803295018421395,0.06762455000000145,2.2147,2.84576156,False,True
4421,Li2V(OF)2,mp-761268,Pc,3.0586438443117085,0.10402149142857553,0.8913999999999997,1.43739984,False,True
4422,Li5Mn2CoO8,mp-1313101,P2/m,3.939865100072784,0.0716265890625003,0.5369999999999999,2.62906079,False,True
4423,Li2CuSiO4,mp-752888,C222_1,3.219463915115872,0.08384676125000023,0.0,2.17362088,False,True
4424,Li24TiCr11O36,mp-779077,P1,3.553972034049965,0.01957645017360754,0.6848000000000001,3.13049663,True,True
4425,Li7Mn4CoO12,mp-1639498,P-1,3.953928427819904,0.06105444552083217,0.3913000000000002,3.20833772,False,True
4426,Li3Al2VO6,mp-770362,P2_1/c,3.0001641914082624,0.090561648125,1.911,5.5364833,False,True
4427,Li3Bi2(BO3)3,mp-768798,P2_1/c,5.622720534669275,0.037604371862748565,3.2060000000000004,2.87971745,False,True
4428,Li5Cu(PO4)2,mp-755821,Pm,2.9151683173575282,0.02897283421875052,1.4936000000000003,3.95900922,False,True
4429,Li9Mn2Co5O16,mp-1175637,P1,4.25597146116453,0.0548787596875,1.5471,3.65826787,False,True
4430,Li9Mn2Co5O16,mp-1100664,Cm,4.132807683026078,0.11201617000000041,0.0,2.93844408,False,True
4431,Li2MnO2,mp-19279,P-3m1,3.667645289997864,0.009606366333334115,2.4263000000000003,2.23267303,False,True
4432,Li9Mn2Co5O16,mp-1176211,P1,4.094919455331426,0.12922004687500088,0.0,2.40166259,False,True
4433,Li9Mn2Co5O16,mp-1175841,P1,4.25295918417781,0.07860597031250016,0.7370000000000001,2.68175195,False,True
4434,Li2VP4(H4O5)4,mp-758903,P2_1/c,2.081544097914397,0.014781171175711094,1.8897,3.00158582,False,True
4435,Li7Mn2(CoO4)3,mp-1174872,P-1,4.061476169229843,0.16933637833333393,1.3863000000000003,2.30316784,False,True
4436,Li4MnCo2O7,mp-1174603,P1,4.140803048410148,0.08024142892857,0.9840999999999998,2.37594356,False,True
4437,Li4MnCo2O7,mp-1174517,P-1,4.081982541460704,0.13589567571428418,0.15200000000000014,2.75007008,False,True
4438,Li3Cr(PO4)2,mp-1661932,C2/m,3.140562320878769,0.022840351249995727,2.6416999999999997,2.30433948,False,True
4439,Li7Mn5O12,mp-1639949,P1,3.885563469368672,0.025178547291666575,1.0463,2.68185074,False,True
4440,Li9Mn2Co5O16,mp-1176199,P1,4.172730493317166,0.09252269187500062,0.5143999999999997,3.02392926,False,True