,formula,mp-id,crystal system,density,energy above hull,band gap,efermi,is gap direct,theoretical
2126,Li16Ta2N8O,mp-14871,R-3,3.756291786819873,0.0,3.4017,1.08924131,False,True
2127,Li3CrO4,mp-753258,P1,2.423301372813117,0.05834509062500004,1.0166,0.81524114,False,True
2128,RbNa3Li12Ti4O16,mp-774749,I4/m,2.6615471013769536,0.0,4.3103,0.09137121,False,True
2129,Li9Mn2Co5O16,mp-1175886,P1,4.223952665162147,0.07855196718750079,0.552,3.21932613,False,True
2130,Li2CoCO4,mp-757730,P2_1/c,2.697778875591177,0.08842663437499798,2.5618999999999996,1.03407082,False,True
2131,Li7RuO6,mp-37839,P1,3.3776716462475544,0.009826722857143366,0.6366,1.62473585,False,True
2132,Li4MnCo2O7,mp-1174672,P1,4.0755731741006045,0.08747769571428421,0.9318,3.18670099,False,True
2133,Li2CoOF2,mp-760048,P4/nmm,3.8298900182383693,0.041935987916666306,0.1825000000000001,2.18773957,False,True
2134,Li2FeP3O10,mp-859112,P2_1/c,2.2705729435865436,0.0644196430729167,2.7898,-0.53060129,False,True
2135,Li6V3P8O29,mp-772139,P1,2.5942732743381973,0.02443773832426821,1.1178,0.8569894,False,True
2136,Li7Mn5O12,mp-1650854,P-1,3.8655221652135383,0.030903871250000492,0.8241999999999998,3.59761027,False,True
2137,Li2HIO,mp-643069,Pnma,2.6483094277690595,0.0,4.3237,-0.78516399,False,True
2138,Li9Mn7O16,mp-1100520,P-1,3.8969072881864366,0.03063760015624961,0.5878000000000001,2.9235699,False,True
2139,Li8Te2O9,mp-772619,P-1,3.75959015703878,0.04774681486841903,1.9261000000000004,3.08250013,False,True
2140,Li2Si2WO7,mp-753700,P-1,4.3953893891924025,0.04322513166666564,2.7995000000000005,2.95811279,False,True
2141,Li9Mn2Co5O16,mp-1175830,P1,4.215618075476616,0.08003220031250002,0.40759999999999996,2.55408423,False,True
2142,Li6MnV3(PO4)6,mp-1177020,P1,2.8470084701991505,0.06438167651560978,0.3394999999999999,2.26869315,True,True
2143,Li3Ti2(PO4)3,mp-776625,P1,2.775972011507255,0.06370338348332805,0.026399999999999757,4.28969527,False,True
2144,Li5W2O7,mp-1192707,P-1,5.999399190480699,0.04774865142856477,2.1295,2.84396306,False,True
2145,Li2CrO2,mp-1291459,C2/m,3.037314907236811,0.03238746249999913,0.9845999999999997,1.96306825,False,True
2146,Li2FeBO4,mp-777232,Pca2_1,3.079666702123104,0.0858257285937496,2.4386,1.4050248,False,True
2147,Li3V2P4(HO8)2,mp-850257,P1,2.912509646884648,0.06584769148148162,0.9343999999999999,1.93023257,False,True
2148,Li2VO2F,mp-759119,P2/m,3.498770361086863,0.11972590916666359,0.0,3.90038993,False,True
2149,Li7Mn4CoO12,mp-1175307,Pm,3.919900901401953,0.07460551052083275,0.43230000000000013,3.48368056,False,True
2150,Li7Co5O12,mp-1174223,P-1,4.204472714597505,0.05554710874999724,0.04490000000000016,2.00021273,False,True
2151,Li8VO6,mp-1176805,R-3,2.600840750424924,0.03700209716666425,1.6063999999999998,1.32102852,False,True
2152,Li9Mn2Co5O16,mp-1175850,P1,4.1905709051694595,0.090319928125,0.3847999999999998,2.52754616,False,True
2153,Li4V3P8O29,mp-760322,C2,2.5556986583502903,0.05092750424242265,0.8027,0.47049238,False,True
2154,Li2Sn(PO3)6,mp-757479,P1,2.778936784166214,0.08278481845678698,1.8913,0.80624513,False,True
2155,Li7Mn2(CoO4)3,mp-1175111,Cm,4.053625983973382,0.10714056208333389,0.0,2.77212475,False,True
2156,Li5Mn3O8,mp-1174519,C2/m,3.829743823610138,0.03635254218750017,0.6631,2.81028916,False,True
2157,Li32Mn13Cr3O48,mp-777750,P1,3.7042352011750292,0.01462577671874321,1.1929,2.05408553,False,True
2158,Li4MnCo2O7,mp-1174536,C2/m,4.1160917683621205,0.0693880346428557,1.1046,2.3173941,False,True
2159,Li3V2(PO4)3,mp-705293,Cc,2.832089965359723,0.02554843150002739,1.9338000000000002,2.11828988,True,True
2160,Li3CuAsCO7,mp-768589,P2_1/m,3.310349025301081,0.05516209730769006,0.14360000000000017,1.89834487,False,True
2161,Li7Mn4CoO12,mp-1175289,P1,3.8822617786400024,0.0940158080208322,0.0,2.52370746,False,True
2162,Li2MnBO4,mp-768436,Pnma,3.115272709690593,0.10942792218749986,0.49060000000000015,1.69977825,False,True
2163,Li5V3P8O29,mp-773571,P1,2.5670051996700165,0.03387255653703658,0.9646000000000001,0.61316503,False,True
2164,Li4MnCrO6,mp-768712,C2/c,3.6528944685038574,0.0,0.7557,2.15201106,True,True
2165,Li9Mn2Co5O16,mp-1176293,C2/m,4.174302112107878,0.17011753500000015,0.0,2.23270608,False,True
2166,Li32Mn11Cr5O48,mp-777734,P1,3.6796265811392197,0.02405073744791686,1.0094000000000003,2.01649773,True,True
2167,Li4MnCo2O7,mp-1174632,P1,4.1207402254672045,0.08457543214285579,0.9415,2.3019125,False,True
2168,Li3MnAsCO7,mp-771034,P2_1/m,3.0224662830302065,0.060152276346155276,2.1045999999999996,1.77533052,False,True
2169,Li3MnCoO5,mp-1174188,P-1,3.9971946221112233,0.06948387799999,1.1554000000000002,2.27651017,False,True
2170,Li2VP2O7,mp-752820,C2/c,2.667509539831012,0.041626629175339325,2.8277,3.36685018,False,True
2171,Li6V3P8O29,mp-760114,P1,2.606393351724903,0.025251688324267718,1.3947,0.77947309,False,True
2172,Li4CrP2O9,mp-849763,Pbca,2.653044914282998,0.06002021010043812,0.8664999999999999,0.91753114,True,True
2173,Li5V3P8O29,mp-758864,Cc,2.573202302991338,0.03331677909259234,1.1440000000000001,0.56522566,False,True
2174,Li9Mn2Co5O16,mp-1176198,P1,4.188359857743492,0.10064665937500017,0.0,2.61141626,False,True
2175,Li2PbO3,mp-674176,C2/c,6.8052454917095755,0.2183480874999999,0.2200000000000002,3.72182782,False,True
2176,Li13Mn2O9,mp-1653421,P1,2.4342195726642872,0.05384896458334065,0.42169999999999985,0.9340786,False,True
2177,Li7Mn4CoO12,mp-1175273,P1,3.8904528985182725,0.09282167552083198,0.0,2.36799561,False,True
2178,Li7Mn4CoO12,mp-1175250,P1,3.964263416377539,0.3017328321874988,0.4544999999999999,2.80818612,False,True
2179,Li9Mn2Co5O16,mp-1176035,P1,4.191320825046979,0.09254526437500044,0.5356000000000001,3.02151579,False,True
2180,K4Li5Mn2O8,mp-760896,P1,2.665253151817474,0.08133244228832659,0.5408,1.21141203,False,True
2181,Li3Fe(BO2)5,mp-752566,P-1,2.5029738027029107,0.0480183327632,3.645,5.23774142,False,True
2182,Li7Mn5O12,mp-1175339,P-1,3.8336908993700227,0.08088592020833296,0.0,2.38526953,False,True
2183,Li7V3P8O29,mp-1176873,C2,2.5926068832300517,0.031049675137409416,0.0,1.64861267,False,True
2184,Li3MnPCO7,mp-1177612,P-1,2.542479510374994,0.08073231538461645,3.7089,0.98960377,False,True
2185,Li8BiO6,mp-768987,P6_3cm,3.6807295049329656,0.06717791275000184,0.0,1.39211944,False,True
2186,Li11V6O5F19,mp-849591,P1,3.02233796777611,0.06994065289635731,1.0273999999999999,2.42783071,False,True
2187,Li12Mn3CoP4(CO7)4,mp-1178081,Pm,2.7455586287513754,0.05279735269230823,2.0535,2.43747328,False,True
2188,Li2UO4,mp-7724,I4/mmm,5.2267030002407004,0.18495292892856785,1.9835000000000003,1.54750871,False,True
2189,Li5Fe2P2(CO7)2,mp-1177175,P-1,2.7320504339909633,0.03606806195000534,1.2673999999999999,1.2677092,False,True
2190,Li3Lu(NO3)6,mp-1212270,P2_1/c,2.6484494804039063,0.0,3.1118,-0.45128759,False,True
2191,Li8Cr3TeO12,mp-767678,P2,4.006386427313424,0.09468418093749698,0.8811,3.36114919,False,True
2192,Li3Si2BiO7,mp-757466,P6_3,4.026696447505228,0.0657145317948693,3.4200000000000004,2.42047381,False,True
2193,Li3MnCoO5,mp-1174180,P1,3.9585535729276153,0.11777000699999007,0.17769999999999975,2.66307919,False,True
2194,Li7Mn(O2F)2,mp-1376868,P1,2.4954074551359895,0.6694443057142854,1.6323,1.14149229,False,True
2195,Li9Mn2Co5O16,mp-1175531,P-1,4.261774521637633,0.1025409790625007,0.3782000000000001,2.88026274,False,True
2196,Li6MnSiO6,mp-757260,P2_13,2.5880471258127056,0.09851127678571192,2.9524000000000004,1.38998656,False,True
2197,Li7Co5O12,mp-1174577,C2/m,4.050851123197312,0.26872656541666373,0.0,1.84118103,False,True
2198,Li3MnCoO5,mp-1174255,P1,3.963103236368545,0.11686197699998946,0.0,2.54873146,False,True
2199,Li3Ni2(PO3)7,mp-859106,P-1,2.843335218679307,0.09050027755050483,4.0723,1.3005985,True,True
2200,NaLi2FePCO7,mp-1101703,P1,2.835323949549845,0.038877503461541174,2.0243999999999995,3.02186858,False,True
2201,Li6MnV3(PO4)6,mp-764655,C2,2.8381691089239625,0.09627727601560832,2.585,2.18299282,False,True
2202,Li2TiPCO7,mp-25400,P2_1/m,2.562611109643796,0.13001672963541733,0.2118000000000002,3.93178352,False,True
2203,Li2NiP2O7,mp-779070,P2_1,2.9449557262115453,0.004232519722220829,4.312200000000001,1.25998894,False,True
2204,Na3Li3Fe2P2(CO7)2,mp-771006,P1,2.837951620686079,0.024723668846155178,3.3760000000000003,1.88322942,False,True
2205,Li13Co11O24,mp-531078,P2_1/c,4.709959966339286,0.014519090624999897,0.20459999999999967,2.51230133,False,True
2206,Li3Ni(BO3)2,mp-770876,P-1,2.6838759452784484,0.0497882459524055,1.1688,0.52246849,False,True
2207,Li3Cu(PO4)2,mp-26224,P2_1,2.695855859505893,0.05632248330357115,0.0,0.3434374,False,True
2208,Li3Fe(BO3)2,mp-770825,P2_1/c,2.8338675508532916,0.000909045416665144,2.1825,1.06004952,False,True
2209,Li6V3P8O29,mp-772646,P1,2.590140560805896,0.023915010715573004,1.1088,0.78143257,False,True
2210,Li11V8(PO4)12,mp-849384,P1,2.872031569808499,0.006442914912961228,0.8757000000000001,2.11672666,False,True
2211,Li3MnO2F,mp-756674,Pnnm,2.6357206268482893,0.09375490416666654,0.6114999999999999,1.09065574,False,True
2212,Li6FeO6,mp-771897,R-3,2.5699288938251925,0.07470363807691971,0.0,0.13137698,False,True
2213,Li3Fe2(SiO4)2,mp-1177702,P2_1/c,2.9551679911014634,0.033536258000006924,1.5291000000000001,3.49753625,False,True
2214,Li7V3P8O29,mp-1176849,Cc,2.5768939357535845,0.02610293598847324,0.9552,2.07200201,False,True
2215,Li3Mn(PO4)2,mp-753513,C2/c,3.039323592923902,0.018474686964336406,1.6431000000000002,1.93429985,False,True
2216,Li9Mn2Co5O16,mp-1372792,P1,4.230168986700677,2.0529513396875005,0.0,3.58291392,False,True
2217,Li8NiO5F,mp-764727,P6_3,2.4781212006318425,0.032073054222220954,1.8044000000000002,0.31208969,False,True
2218,Li7SbO6,mp-37436,P1,3.5441446613422998,0.008746312142857704,3.4465000000000003,1.52366409,False,True
2219,Li9Cr2(H9O7)3,mp-778388,P-1,1.9812634732576413,0.05030863851694711,2.17,1.46396418,False,True
2220,Li3Bi(BO3)2,mp-768771,P2_1/c,4.337455724602618,0.03985737479166396,3.0051,2.03771022,True,True
2221,Li5V3P8O29,mp-759175,P1,2.5708684487920985,0.03712552609259223,0.7304,0.74961689,False,True
2222,Li12CrNi3P4(CO7)4,mp-1178083,Pm,2.860798198603254,0.050661370775241465,1.6346000000000003,2.50900707,False,True
2223,Li2MnPHO5,mp-754995,P1,2.9299302615681246,0.05472112300000642,3.1918999999999995,2.30633211,False,True
2224,Li4Cu(PO4)2,mp-26223,P2_1/c,2.776195956939306,0.025518256500000724,3.7264999999999997,1.48339353,False,True
2225,Li3Al2CoO6,mp-1222601,C2/m,3.719106936051836,0.023384412916667152,0.8303000000000003,4.88541905,False,True
2226,Li9Mn2Co5O16,mp-1100675,Cm,4.177652761565679,0.10008091343750003,0.05620000000000003,3.09810513,False,True
2227,Li3CrBAsO7,mp-754292,P2_1/m,3.157340568121595,0.08406786596149551,2.627,1.03181151,False,True
2228,Li4AlCr3O8,mp-754006,C2/m,3.895889939772531,0.008730711718742512,3.1048,3.40461963,True,True
2229,Li9Co7O16,mp-1175376,P1,4.359195616104184,0.03923659843750027,1.1528,2.1284157,False,True
2230,Li4MnCo2O7,mp-1174466,P-1,4.176578656614282,0.11459547607142806,0.0,2.40876046,False,True
2231,Li5Mn(CoO4)2,mp-1174120,P2/m,3.9174191974776753,0.08482591593749689,0.0,1.52896284,False,True
2232,Li4WO5,mp-1413517,P-1,5.163984500195917,1.5434237189999997,0.0,3.51774017,False,True
2233,Li9Mn2Co5O16,mp-1176235,P1,4.152301969755411,0.10336758781250044,0.0,2.65279626,False,True
2234,Li2Mn(SiO3)2,mp-774598,Fdd2,2.661123344200354,0.061169769166665056,3.0724000000000005,1.53699614,False,True
2235,Li7Mn5O12,mp-1646544,P-1,3.8655820111812,0.028595240833333868,0.9474999999999998,3.58875956,False,True
2236,Li4Co2C4SO16,mp-770515,Fddd,2.6705675102458595,0.09471045413579393,0.0,0.53606973,True,True
2237,Li5V3P8O29,mp-773480,P1,2.5726886340030473,0.03506425820370307,0.5802999999999999,0.76536062,False,True
2238,Li4Cr2C4SO16,mp-1177627,P1,2.5832636691296194,0.08985894212962986,0.8746999999999998,2.82395792,True,True
2239,Li7Mn2(CoO4)3,mp-1174907,C2,4.156125883268621,0.10209444458333383,0.0,2.82786162,False,True
2240,Li9Mn2Co5O16,mp-1176162,P1,4.171907795640912,0.09555357343750082,0.0,2.48190699,False,True
2241,Li9Co7O16,mp-1175463,P2/m,4.271845722648008,0.08374490218750008,0.0,2.28638452,False,True
2242,Li9Mn2Co5O16,mp-1176052,P1,4.167414748711218,0.10802831468750007,0.0,2.57939786,False,True
2243,Li9Co7O16,mp-1175429,P-1,4.26692976073384,0.08205911093750018,0.0,2.1813961,False,True
2244,Li2FeSi3O8,mp-767149,P2_1,2.6419584822148376,0.07492354053571315,2.6144,2.68791664,True,True
2245,Li3CrO4,mp-770632,Pmn2_1,2.749514861687902,0.0,0.8956999999999999,0.89580871,False,True
2246,Li6Mn3Cu(PO4)6,mp-757599,P1,3.01203680411696,0.06653818593749516,0.0,1.98940601,False,True
2247,Li9Mn2Co5O16,mp-1175426,P-1,4.27985990077558,0.1363045896875006,1.4868999999999999,2.51015282,False,True
2248,Li9Mn2Co5O16,mp-1175901,P1,4.234754372654108,0.09517571187500007,0.0,2.69655687,False,True
2249,Li2Mn(PO4)2,mp-753291,C2/c,2.832996052825539,0.004661901506411326,0.7397999999999999,0.76453094,False,True
2250,Li9Mn2Co5O16,mp-1175998,P1,4.170254504555252,0.09826978687500088,0.2876999999999996,2.89472952,False,True
2251,Li4MnCo2O7,mp-1174325,Cm,4.059904366004029,0.14607471178571263,0.0,2.7962433,False,True
2252,Li2Co(SiO3)2,mp-758014,Fdd2,2.861494165495897,0.06553302015151452,2.9687999999999994,2.20367694,False,True
2253,Li5Mn2CoO8,mp-1174346,P2/m,3.9884131287692726,0.05074584500000068,0.06259999999999977,2.61731767,False,True
2254,Li2Ti(OF3)2,mp-726110,C2/m,2.4624350537789326,0.44546434613636077,0.7093,-2.18908938,False,True
2255,Li3MnV(PO4)3,mp-1177675,P1,2.8720045093249174,0.05333297956249794,0.4595999999999998,1.83450806,False,True
2256,Li5Fe(P2O7)2,mp-859124,P-1,2.8273301341062393,0.07975051395832988,2.037,1.5423553,False,True
2257,Li5BiO4,mp-768986,P4_2/nmc,4.492943320210504,0.040350119874998036,1.6844999999999999,2.28207938,False,True
2258,Li5V3P8O29,mp-1177062,P1,2.5596324558450467,0.03740914831481401,0.9773000000000001,0.68685659,False,True
2259,Li3Mn(CO3)4,mp-758628,Pc,2.1689114709667994,0.1626620649062529,0.0242,-0.75522766,False,True
2260,Li5V3P8O29,mp-773422,P1,2.5507776271274145,0.03770616398147997,0.7513,0.42836416,True,True
2261,Li6MnV3(PO4)6,mp-777582,P2_1,2.9333570513218605,0.025478943015609268,0.04499999999999993,1.98034553,False,True
2262,Li32Ti3Cr13O48,mp-777482,P1,3.5376140094609188,0.018970892369794434,1.0519000000000003,2.17961127,False,True
2263,Li2CrPO5,mp-757132,P2_1/c,3.151010472427049,0.09307123944443951,1.0107999999999997,3.90332198,False,True
2264,Li2FeSiO4,mp-752900,C222_1,2.9580426746629898,0.010883400312500235,2.5809999999999995,1.89338518,False,True
2265,Li5V3P8O29,mp-773232,P1,2.5698992473142397,0.03510017475925853,0.41779999999999995,0.81028516,False,True
2266,Li7V4O11F,mp-758444,P1,3.4036115679138907,0.0549209783152218,1.3348999999999998,3.80558857,False,True
2267,Li9Mn2Co5O16,mp-1176283,C2/m,4.157523642758883,0.0699899300000002,1.0960999999999999,3.41824315,False,True
2268,Li19V12O32,mp-1223171,Cm,3.57646013074774,0.060488143551587825,0.6928999999999998,3.91529819,False,True
2269,Li7Mn2(CoO4)3,mp-1174912,C2,4.14454819794751,0.055082609583333664,0.5342000000000002,2.71086601,False,True
2270,Li9Mn2Co5O16,mp-1100611,Pm,4.16335938307309,0.10829311125000007,0.0,2.99949697,False,True
2271,Li5V(CO3)4,mp-765146,P2_1/c,2.4043836156105907,0.05215951670454544,2.7054,1.16200757,False,True
2272,Li2ZrO3,mp-4156,C2/c,4.210744562000371,0.0,3.7273999999999994,1.16113392,False,True
2273,Li4Cu(PO4)2,mp-26312,Pc,2.7848848851373633,0.045622253000000335,0.0,1.24711214,False,True
2274,Li6Mn3CoO10,mp-1174811,C2,3.9507439592058113,0.04461396837499709,0.9897,2.68240092,False,True
2275,Li3TiSiO5,mp-766449,Pna2_1,2.711746693164335,0.09031252450001759,0.02629999999999999,4.83019577,False,True
2276,Li2FeSiO4,mp-764340,Pna2_1,2.9855501480153324,0.019516443437500364,3.6475,1.98936657,False,True
2277,Li2Cu(PO3)4,mp-26261,C2/c,2.759519395421541,0.015091105745591804,0.6202000000000001,1.39402406,False,True
2278,Li9Mn2Co5O16,mp-1176190,P1,4.151976048372295,0.13853340375000034,0.0,2.39214364,False,True
2279,Li9Bi5O13,mp-779282,P2_1/c,5.68516810319406,0.07703076592592151,0.20630000000000015,2.51219668,False,True
2280,Li10Mg12Fe(PO4)12,mp-849374,P-1,2.9619452112921314,0.003092692078300985,4.4803,2.87222577,False,True
2281,Li7Fe3Sb(PO4)6,mp-1176924,R3,3.093314092472575,0.06611473057316974,0.0,3.4550516,False,True
2282,Li8Mn(O2F)2,mp-780086,P-1,2.4847931234714373,0.0708292401666677,2.3987000000000003,1.53836708,True,True
2283,Li15Ni8(PO4)12,mp-1178182,P1,2.9832193547116166,0.06266466379267399,0.0,0.8920684,False,True
2284,Li3MnCoO5,mp-1173955,P-1,3.9885840121444396,0.05231236999999034,1.6718000000000002,3.59697607,False,True
2285,Li24Ti11CrO36,mp-779092,C2,3.3494087542588016,0.0031248056597243945,1.4654999999999998,2.05490751,True,True
2286,Li8Cr3SbO12,mp-753875,P2,4.031056921071226,0.08776038645833673,0.4548000000000001,3.5844413,False,True
2287,Li7VGeO8,mp-849771,Pm,2.651176705581744,0.05826753588235256,2.4194,0.2420271,False,True
2288,Li2Mn(PO3)4,mp-26095,Pnma,2.7475468258822597,0.006213659166721008,4.4509,1.68426139,False,True
2289,Li2CrO4,mp-17159,R-3,2.487465070969037,0.0,2.6021,-1.55661831,False,True
2290,Li4V3P8O29,mp-765018,Cc,2.554409579114517,0.05743306037878604,1.0256,0.35638927,False,True
2291,Li3Nd3(TeO6)2,mp-677627,Ia-3d,5.830936821800384,0.0,3.1313999999999997,2.51959658,True,True
2292,Li9Mn2Co5O16,mp-1100593,Pm,4.142732242023914,0.10389847812500008,0.0,2.90067158,False,True
2293,Li5V3P8O29,mp-765148,P-1,2.587262462760116,0.03425367420370229,1.1982,0.60375616,False,True
2294,Li9Mn2Co5O16,mp-1176248,P1,4.107450090668076,0.12056498562500018,0.22960000000000003,2.57458112,False,True
2295,Li4Mn2Si3O10,mp-757670,C2/c,2.9383012342834314,0.014194188771936567,3.0154000000000005,2.38804175,True,True
2296,Li4V3P8O29,mp-758406,P1,2.540397972127254,0.04875702526515013,0.5437000000000001,0.44079329,False,True
2297,Li3MnCoO5,mp-1174184,C2/m,3.867685911180202,0.16948491649998942,0.0,2.58551265,False,True
2298,Li9Mn2Co5O16,mp-1175877,P1,4.17917651136282,0.07324425031250037,1.4234,2.10094506,False,True
2299,Li3Fe2(PO4)3,mp-849395,P-1,2.948551133204639,0.014764653750005685,2.5377,0.89241275,False,True
2300,Li4Co3O7,mp-1174212,P1,4.273701815249344,0.06589298178571124,0.512,3.08527582,False,True
2301,Li2AlFeO4,mp-1251093,Pca2_1,2.8674379462143125,0.06018894781249973,3.1653000000000002,4.01547076,True,True
2302,Li4V3P8O29,mp-1177400,P1,2.5127229154820223,0.04950504196969607,0.8451,0.25880759,False,True
2303,Li24TiCr11O36,mp-1178068,C2,3.5899376252498842,0.0216627610069402,0.9709000000000003,3.23265124,True,True
2304,Li3Mn(BO3)2,mp-768487,P2_1/c,2.6769046788620567,0.09193100374999919,0.9791000000000003,2.1920424,False,True
2305,Li2FeP2O7,mp-752657,P-1,2.911089883411528,0.03186194368052586,4.350899999999999,1.76150888,False,True
2306,Li4PbO4,mp-22170,Cmcm,5.122514555962003,0.0,1.4949999999999999,1.0866133,True,True
2307,Li3VCrP2(HO5)2,mp-766011,P1,3.023037621277486,0.037393954249511197,1.1033000000000004,3.66840642,False,True
2308,Li3CuSiCO7,mp-772051,P2_1/m,2.966260097031005,0.08511340774038434,0.0,1.88689753,False,True
2309,Li2MoO4,mp-18050,R-3,3.093206339301642,0.0,3.8713,-1.32687895,False,True
2310,Li9Mn2Co5O16,mp-1175404,P-1,4.180518538467473,0.20892387718750083,1.6245000000000003,2.2007133,False,True
2311,Li7VO5F,mp-759648,P-1,2.4414123644958576,0.06229535374999973,1.5436999999999999,1.28526116,True,True
2312,Li7Mn4CoO12,mp-1175298,Pm,3.8952947702711977,0.09051757718749887,0.0,2.42645978,False,True
2313,Li9Mn2Co5O16,mp-1176318,C2/m,4.238954234796444,0.12350506906250036,0.0,2.8982344,False,True
2314,Li4MnCo2O7,mp-1174643,C2/m,4.025953711199807,0.18159765857142762,0.0,2.2363262,False,True
2315,Li8V3P8O29,mp-757784,P-1,2.627889751018586,0.021751843333278842,0.931,1.48404091,False,True
2316,Li7Mn2(CoO4)3,mp-1174485,C2/m,4.063575346696951,0.06393641208333367,0.9380000000000002,3.43648605,False,True
2317,Li9Mn2Co5O16,mp-1175995,P1,4.181855785438333,0.10485810625000003,0.27159999999999984,2.7966527,False,True
2318,Li3Mn2(PO4)3,mp-850909,C2,2.9610621939369435,0.0609498007500493,0.24269999999999992,1.55760046,True,True