,formula,mp-id,crystal system,density,energy above hull,band gap,efermi,is gap direct,theoretical
196,Li3Mn(PO4)2,mp-759826,P2_1/m,3.0727081028951666,0.028150840178621905,0.0,2.45791878,False,True
197,Li3VSiBO7,mp-771263,P2_1/m,2.6981344297641083,0.0738157354945228,1.5995,1.89842004,False,True
198,Li3FeBAsO7,mp-771029,P2_1/m,3.1677742554341477,0.09158147883516232,2.1952,1.14591806,False,True
199,Li9Mn2Co5O16,mp-1176212,P1,4.150240828953959,0.1002552609375007,0.3269000000000002,2.66954172,False,True
200,Li4V3P8O29,mp-1177203,Cc,2.5040098459873645,0.047221605492422825,1.0894,1.15922238,False,True
201,Li4FeP2O9,mp-757676,P2/c,2.720493056054347,0.07585576447656095,0.03379999999999994,0.84616711,False,True
202,Li7Mn4(P2O7)4,mp-1176940,P-1,2.9555592672867936,0.012438380585078512,0.2872000000000001,2.04300818,True,True
203,Li5Cr4O8,mp-850464,P2_12_12_1,3.8696513870040903,0.1051705051470595,1.0896,4.41814006,False,True
204,Li9Mn2Co5O16,mp-1175656,C2,4.2120473529138085,0.10430876062500083,0.06490000000000018,2.5679167,False,True
205,Li9Mn2Co5O16,mp-1100576,Pm,4.160761677493675,0.10624653187500055,0.0,2.60446582,False,True
206,Li2VO2F,mp-763225,Cm,3.32862588127435,0.1031684674999962,0.27300000000000013,3.41064995,False,True
207,Li4MnCo2O7,mp-1174556,C2/m,4.2092237534988115,0.060702394285713446,0.9365000000000001,2.47526648,False,True
208,Li5V3P8O29,mp-1177238,P1,2.552620211475595,0.03170044564814667,0.9305000000000001,0.53473563,False,True
209,Li9Mn7O16,mp-1100543,P-1,3.906759626072673,0.03311681828124957,0.0,2.98384993,False,True
210,Li6MnV3(PO4)6,mp-1176983,P1,2.994651894800116,0.020892204515607915,0.5801999999999998,1.98600369,False,True
211,Li5V3P8O29,mp-772729,P1,2.5566652983558713,0.033567623203702546,0.9162,0.68469045,False,True
212,Li7Mn2(CoO4)3,mp-1175086,P1,4.037129108322872,0.11550660833333382,0.0,2.72085564,False,True
213,Li7Cr4P9O32,mp-27077,P-42_1c,2.9047023234634017,0.05031869048076931,2.9121000000000006,1.7892779,True,True
214,Li5V3P8O29,mp-1177126,Cc,2.5613614003944205,0.034814444092591046,0.0706,1.20378418,False,True
215,Li3FeSi2O7,mp-758766,Pnma,2.8897955643009063,0.06280100923076759,2.1388999999999996,1.9451036,False,True
216,Li9Mn2Co5O16,mp-1175698,P-1,4.182711524834469,0.11535236312500086,0.0,2.64075667,False,True
217,Li9Mn2Co5O16,mp-1175561,P-1,4.210410396633961,0.08386331437500072,0.18130000000000024,2.8227141,False,True
218,Li5Mn3O8,mp-1174777,P-1,3.7020247572891556,0.1000784078125001,0.0,2.41888721,False,True
219,Li7Mn4CoO12,mp-1175221,P1,4.004079274403854,0.052618026770831605,0.44499999999999984,3.43428102,False,True
220,Li4MnCo2O7,mp-1174639,P1,4.205045482942886,0.1321208692857132,1.6921,2.27366515,False,True
221,Cs2Li3B3P6(PbO12)2,mp-1196318,P2_13,3.981573065708264,0.0,5.0959,1.77440524,False,True
222,Li3Ti(Si2O5)3,mp-772545,Cmce,2.576874036328405,0.05286214195333194,4.256200000000001,5.39455117,False,True
223,Li6V3P8O29,mp-760070,C2,2.5949264547733812,0.02604979115035544,0.8567999999999999,1.93265662,False,True
224,Li24Mn5Cr7O36,mp-768825,P1,3.643337002773165,0.03607229638888487,1.0373,2.13860603,False,True
225,Li5NiO4,mp-778478,Pbca,2.7426523733897983,0.09831675458333056,1.5215999999999998,0.92377568,True,True
226,Li24Ti7Cr5O36,mp-768449,P1,3.4392918509910224,0.012824820937497705,1.3152999999999997,3.33199745,False,True
227,Li9Mn7O16,mp-1100499,C2/m,3.936760140018902,0.02733725609374993,0.9664000000000001,2.80628139,False,True
228,Li2MnCSO7,mp-770761,P2_1/m,2.5155400986073113,0.06876397791667266,3.9814,1.18604243,False,True
229,Li4Cr(PO4)3,mp-764927,P1,2.606472505458132,0.09104980547916686,1.3127000000000002,1.36816269,False,True
230,Li3V2(O2F)2,mp-759979,P2,3.2367049750749888,0.09402421920453463,0.6772999999999998,1.2827411,False,True
231,Li8Co(O2F)2,mp-759827,P-1,2.5918369297163055,0.0829797430000001,2.2193,1.07988379,False,True
232,Li2VO2F,mp-763197,P1,3.3255811114956475,0.10597382791666288,1.0497999999999998,2.84717392,False,True
233,Li4V3OF11,mp-778466,P1,2.9443011454194745,0.06424292644737406,1.1112,1.19598088,False,True
234,Li2BiO3,mp-753544,C2/c,6.2316833008329375,0.05464928770832689,1.0347,3.16818539,False,True
235,Li6V5O12,mp-1177023,C2,3.746057490843394,0.05835018755434174,0.0,3.7798596,False,True
236,Li4V3OF11,mp-765544,P1,3.212045153441012,0.04642141855263748,2.2344999999999997,0.6872658,False,True
237,Li2FePO5,mp-861176,P2_1/c,3.1297359406533385,0.09442542166666623,1.626,2.43517613,False,True
238,Li4Fe3P4(HO8)2,mp-780175,P2_1/c,2.796837696094561,0.04370238793103365,3.8515,1.36447816,False,True
239,Li9Mn2Co5O16,mp-1175575,P-1,4.168634075209959,0.07707560062500018,1.2098,3.39625116,False,True
240,Li2FeCO4,mp-757609,P2_1/c,2.525856503150427,0.08321877250000043,2.3439,0.97955693,False,True
241,Li3MnV(PO4)3,mp-780675,P1,3.0117417030433344,0.03186181056249726,0.38580000000000014,2.05375478,False,True
242,Li2Ni(PO3)4,mp-761495,C2,2.7184590298072546,0.06341149245614286,4.0882000000000005,0.89387427,False,True
243,Li3Fe2(SiO4)2,mp-1308156,C2,2.9165036186864977,0.04246012066667415,1.6962000000000002,1.80198672,False,True
244,Li9Mn2Co5O16,mp-1175848,P1,4.1730042294283285,0.0827275559375007,0.11529999999999996,2.66869805,False,True
245,Li2SnO6,mp-1180644,P2_1/c,3.57054231096085,0.5152236675555564,0.0,1.34678818,False,True
246,Li5V3P8O29,mp-1177169,P1,2.539981170622824,0.036664798092592044,1.1117000000000001,0.34939423,False,True
247,Li7V(O2F)2,mp-867592,P1,2.478265774474995,0.09794168446428664,1.7696999999999998,2.05712309,False,True
248,Li7Mn2(CoO4)3,mp-1175065,P1,4.002798906092511,0.14350904375000084,0.23409999999999975,2.78217325,False,True
249,Li3Mn2O4,mp-33314,Imma,3.880677791841806,0.20049720462963005,0.0,3.27580913,False,True
250,Li7Mn(PO4)4,mp-756003,Pm,2.770963926461666,0.06767993041666553,0.0,1.22162165,False,True
251,Li9Mn2Co5O16,mp-1100571,Pm,4.158168448101938,0.11040680812500003,0.0,2.76089594,False,True
252,Li4V3P8O29,mp-849411,P1,2.5207226347225236,0.04767217310605876,0.8246,0.32406709,False,True
253,Li7Mn2(CoO4)3,mp-1174943,P1,4.14137006422325,0.05503172375000087,0.7172000000000001,3.25534353,False,True
254,Li3MnCoO5,mp-1174195,Cm,3.962473115281531,0.14307273249998964,0.0,2.90705308,False,True
255,Li2VOF3,mp-767622,Pnc2,3.0373270293129067,0.09401678446429962,1.3539999999999999,1.48708707,True,True
256,Li5V3P8O29,mp-759789,Cc,2.5780322956275326,0.035684994537035664,1.1195,0.53519585,False,True
257,Li7Mn2(CoO4)3,mp-1175029,P1,4.0485850998612944,0.1071262200000005,0.0,2.66874572,False,True
258,Li9Mn2Co5O16,mp-1100646,Cm,4.14877720338946,0.11021044750000009,0.0,3.03227001,False,True
259,Li2VO2F,mp-763203,P1,3.320846870485365,0.10734024333332925,0.9411,3.01647736,False,True
260,Li6MnV3(PO4)6,mp-1177078,P1,2.8781228520762583,0.019465543640607486,0.20420000000000016,1.77316177,True,True
261,Li4Nb(P2O7)2,mp-863382,P4/ncc,3.2721889165583824,0.08361245808695639,0.6434000000000006,4.78010184,True,True
262,Li2Mn(PO3)5,mp-705355,P2_1/m,2.573225239173694,0.03080228289853615,1.5914000000000001,0.62509902,True,True
263,Li7Mn2(CoO4)3,mp-1174910,C2,4.118644962872811,0.0982880387499998,0.0,2.81313114,False,True
264,Li6MnV3(PO4)6,mp-777844,C2,3.1462352331775656,0.05438297989060814,1.7001999999999997,2.6895425,False,True
265,Li9Mn2Co5O16,mp-1175545,P1,4.261081098822742,0.06962272812500014,0.8619000000000003,2.55579005,False,True
266,Li5Mn(CoO4)2,mp-1174038,P1,4.005561359506204,0.09296832031249735,0.0,2.66497604,False,True
267,NaLi2FePCO7,mp-770772,P2_1,2.841003169752702,0.025532328846156638,3.6412,1.87317832,True,True
268,Li4AlCr3O8,mp-770341,R-3m,3.8937785635525213,0.009295164531242683,3.0815999999999995,3.41005267,True,True
269,Li4MnCo2O7,mp-1174465,P-1,4.109245684514331,0.1334443367857121,0.18359999999999976,2.63555987,False,True
270,Li7Mn2(CoO4)3,mp-1174467,C2/m,4.0608430035759655,0.03260042375000083,1.6734,1.78472974,False,True
271,Li7Mn2(CoO4)3,mp-1174921,P1,4.109185539914939,0.06343265374999962,1.0933000000000002,3.32741421,True,True
272,Li6MnV3(PO4)6,mp-777577,C2,2.9376966218010443,0.053924195390608,0.0,2.33397696,False,True
273,Li7Mn2(CoO4)3,mp-1174871,P-1,4.064870175577435,0.07736754458333461,1.0089000000000001,3.42186144,False,True
274,Li2CoSiO4,mp-759671,Pna2_1,3.1640943661153726,0.005802494062493224,2.6218000000000004,1.93505569,False,True
275,Li2V(PO4)2,mp-26947,Pc,2.97863749156906,0.0482454500640932,1.5765999999999998,1.76445834,False,True
276,Li9Mn2Co5O16,mp-1176154,P1,4.106781411276138,0.23286914500000044,0.0,2.32573507,False,True
277,Li5Fe4(PO4)4,mp-759617,Cc,2.9503092553084858,0.09820460862068714,0.1413000000000002,4.6186685,False,True
278,Li13Ni9O22,mp-769473,P-1,4.3782738539494455,0.018385733560607243,0.0,3.18790064,False,True
279,Li5CoO3F,mp-760036,C2/m,2.698836813474597,0.13805715821874998,0.16860000000000008,2.46509624,False,True
280,Li2Mn(CO3)2,mp-765989,P2_1/c,2.2535987924611387,0.05260847545454084,3.5626,0.76786721,True,True
281,Li9Fe4(BO3)8,mp-759456,P1,2.402437572220457,0.07969073982222064,0.0,-0.40449291,False,True
282,Li2CrPO4F,mp-1172979,P1,2.943629816517497,0.05461141270833991,2.0493,3.22214849,False,True
283,Li2CoO3,mp-1173879,C2/m,4.242075563106375,0.0,0.0,1.4379543,False,True
284,Li2VP2O7,mp-752869,P1,2.807224920834799,0.04359256105033893,2.5888999999999998,3.58178626,False,True
285,Li3Mn(Si2O5)3,mp-758981,Cmce,2.6025221315203373,0.05291489071836608,0.9430000000000001,2.17537145,True,True
286,Li9Mn7O16,mp-1100528,C2/m,3.7928270330009415,0.11834653109375015,0.0,2.36131245,False,True
287,Li4TiO4,mp-762319,Pc,2.2680048362793332,0.07941382291666699,3.8455999999999997,-0.07790962,False,True
288,BaLi4NiO4,mp-776559,P2_1/c,4.068252889711741,0.052374264750000066,2.6892999999999994,1.73139889,False,True
289,Li7Ni(O2F)2,mp-761279,P1,2.622875354703098,0.08372519202381046,1.2277999999999998,0.76707345,False,True
290,Li4MnCo2O7,mp-1174497,P-1,4.04343322142124,0.12834367357142806,0.10170000000000012,2.56251889,False,True
291,Li9Mn2Co5O16,mp-1176301,P1,4.085820204682952,0.1168839484375006,0.0,2.38490224,False,True
292,Li12Mn3V5(PO4)12,mp-779437,P1,2.943204291074347,0.03342828933591502,0.0,2.21415137,False,True
293,Li6Ca12Mo4N16O3,mp-15202,I-43d,3.4581857050178564,0.059168388551825934,2.3083000000000005,2.90465587,False,True
294,Li9Mn2Co5O16,mp-1100651,Cm,4.177983843689044,0.10499943000000034,0.0,2.68111324,False,True
295,Li10V5Cr3O16,mp-760983,Cm,3.926235195021899,0.08072898750000057,0.6901000000000002,5.51543652,False,True
296,Li2CuH14C4(N3O4)2,mp-769075,P2_1/c,1.9096780452257454,0.10044084293651068,3.7314000000000003,1.94905979,False,True
297,Li3Bi(PO4)2,mp-760655,C2/m,4.382121599571903,0.06614708428571436,3.5843,2.66701686,False,True
298,Li4V3O8,mp-756963,R-3m,3.7007332213711295,0.1679799722500075,0.0,3.39719619,False,True
299,Li3MnV(PO4)3,mp-775374,P1,3.162161481171049,0.05671114693749768,0.4086000000000003,2.61044976,False,True
300,Li5Fe2P2(CO7)2,mp-768672,P-1,2.7574125514870764,0.03366729555000614,1.2535999999999998,1.80101148,False,True
301,Li4Mn3O7,mp-1174283,P-1,3.9149809723343703,0.04666651499999919,0.613,3.41640928,False,True
302,Li4Mn3O7,mp-1174294,P-1,3.8833549986513107,0.02842843785714244,0.8471000000000002,2.78240917,False,True
303,Li4Fe2OF8,mp-776522,Cc,3.2188180656461465,0.05654442607407706,0.6990000000000001,0.35590131,False,True
304,Li7Mn4CoO12,mp-1175161,P-1,3.9988620766718523,0.03514104114583194,0.7740999999999998,3.51610498,False,True
305,Li7Co5O12,mp-1174364,P-1,4.256730791901911,0.09224785833333016,0.8724000000000003,2.70075394,False,True
306,Li2FeSiO5,mp-759321,P2_1/c,3.204359307047788,0.09971782314814437,0.26780000000000026,2.87817805,False,True
307,Li6Cu2C4SO16,mp-780401,Fd-3,2.8988798942645677,0.06811816974137663,0.0,1.96387226,False,True
308,Li2TlPCO7,mp-754034,P2_1/m,4.0432125106531664,0.03726239680555565,1.5182000000000002,1.29940463,False,True
309,Li2Co(CO3)2,mp-1638967,Pc,2.654801473837919,0.051709336136366524,2.815,0.60436017,False,True
310,Li4MnCo2O7,mp-1174831,Cm,4.098233568448665,0.1127844739285706,0.0,2.85186947,False,True
311,Li2FeP2O7,mp-695805,P-1,2.9517048790403364,0.01896343680552537,4.2488,1.97294134,False,True
312,Li3MnV(PO4)3,mp-774311,C2,2.884460699396281,0.07025910956249781,0.0,1.9939923,False,True
313,Li3Co2O5,mp-1173960,P-1,4.284203514087694,0.02767770900000066,1.0581,2.2644678,False,True
314,Li3Sb(PO4)2,mp-759416,R3,3.359056981214306,0.08824008880953649,2.7700000000000005,2.77872154,False,True
315,Li3MnCoO5,mp-1174277,Cm,3.965448438505027,0.09022191349998998,0.14760000000000018,3.16517291,False,True
316,Li2NiP2O7,mp-753396,P-1,3.077532651255806,0.055921519513886686,0.29499999999999993,2.36884201,False,True
317,Li3Sb(PO4)2,mp-759099,P-3,3.4580630087996886,0.08156792476191654,2.5676000000000005,2.99711129,False,True
318,Li19Cr4P8O35F,mp-759194,P1,2.8120913332025617,0.061769194962677076,1.9694000000000003,4.9808837,True,True
319,Li2SiNiO4,mp-766475,Pca2_1,3.054278005388507,0.06986760171874984,2.9899000000000004,1.71356209,False,True
320,Li10Co4O9,mp-773128,P-1,3.092059776691636,0.05570181120923845,1.1130000000000002,1.52155233,False,True
321,Li9Mn2Co5O16,mp-1176272,C2/m,4.1774961694881,0.10723151000000009,0.0,2.67654503,False,True
322,Li4V3P8O29,mp-849997,P1,2.524042936479234,0.04795779765151398,0.8090999999999999,0.35612449,False,True
323,Li4MnCo2O7,mp-1174842,Cm,4.079738683894861,0.1314902414285699,0.0,2.68931423,False,True
324,Li2FePO4F,mp-759229,P2_1/c,3.1767773500363616,0.0317466963888835,3.7155,2.13402531,True,True
325,Li7Mn4CoO12,mp-1175159,P-1,3.926901194533685,0.043163113020831645,0.8702999999999999,3.55380259,False,True
326,Li2SiBSbO7,mp-772132,P2_1/m,3.143816090358418,0.08748498690625883,2.5145,1.30873247,False,True
327,Li5Co4(Si3O10)2,mp-849656,P1,2.940049411418596,0.07925925200000172,0.17579999999999996,1.91974207,False,True
328,Li3V(BO2)5,mp-770344,P-1,2.434305480410387,0.06759634085087729,2.4248,5.35859814,False,True
329,Li2SeO4,mp-1180938,R-3,2.630173393010082,0.08619381166666606,3.5781,2.41466076,False,True
330,Li3MnV(PO4)3,mp-1177636,P1,3.1630447594519064,0.05676848006249724,0.5808,2.54895528,False,True
331,Li9Mn2Co5O16,mp-1175713,P-1,4.159792494283424,0.10251772562500072,0.5291999999999999,2.65395177,False,True
332,Li4V3P8O29,mp-765762,P1,2.549475227699977,0.05595665196969524,0.0,0.94507997,False,True
333,Li3Fe2P2(CO7)2,mp-768652,P1,2.645948340841041,0.06478524945651998,0.06540000000000001,0.1701313,False,True
334,Li3Bi(PO4)2,mp-684028,P-3,4.375143887736774,0.04868363404761844,3.6540999999999997,2.39882479,False,True
335,Li7Ni(O2F)2,mp-1663705,P1,2.5755087983055267,0.08826494809523844,1.1687999999999998,0.46768287,False,True
336,Li9Mn3P8O29,mp-26035,C2/c,2.6795690378129575,0.0,1.4499000000000002,1.22978005,False,True
337,Li4Mn3O5F3,mp-753944,Cm,3.602289993277742,0.09483867599999751,0.7021999999999999,2.11443606,False,True
338,Li4V2OF7,mp-757993,Cm,3.001144067098982,0.06200487062499693,0.7107999999999999,2.29936972,False,True
339,Li3Mn2P2O8F3,mp-758713,Fmm2,2.881537417264508,0.06885068277778306,0.0,1.4041236,False,True
340,Li2CoO3,mp-752760,P4_2/mnm,2.9584124762291695,0.1482995641666669,0.8901,-0.22346805,False,True
341,Li7Mn5O12,mp-1648171,P-1,3.8546362252401978,0.0294073229166667,0.8045999999999998,2.76038606,False,True
342,Li7V3P8O29,mp-1176881,P1,2.59204658872736,0.07893704790336731,0.40070000000000006,2.11073087,False,True
343,Li2CrP4O13,mp-31739,P-1,2.5378410122517803,0.054116427593747574,0.12710000000000002,0.20068113,False,True
344,Li2Fe(PO4)2,mp-689973,P2_1,2.973360974813233,0.0767096349519214,0.0,1.13318203,False,True
345,Li3FeSi2O7,mp-759383,P6_3,2.9053602967701453,0.03611878673076774,0.7926000000000002,2.17239658,False,True
346,Li2VO2F,mp-753045,Cm,3.4442864480246866,0.15082728958332936,0.0,3.33776191,False,True
347,Li4Sn(PO3)6,mp-758031,C2/c,2.8300542712271817,0.0533681856752839,4.2261,1.86619457,False,True
348,Li3MnCoO5,mp-1174084,C2/m,3.8812003510982973,0.1586126404999888,0.17090000000000005,2.5820735,False,True
349,Li3VO4,mp-581162,Pnma,2.6299764764504014,0.0026933740624999203,3.939,-0.761298,False,True
350,Li7Mn4CoO12,mp-1175184,P1,3.943961219020978,0.03867156177083153,0.6483000000000003,3.43755277,False,True
351,Li4V3P8O29,mp-1177204,P1,2.5309147049793244,0.045173819583332,0.9118999999999999,0.2153024,False,True
352,Li9Mn2Co5O16,mp-1176070,P1,4.152885341864754,0.11467727562500052,0.08499999999999996,2.70648386,False,True
353,Li7Mn4CoO12,mp-1175355,Cm,3.8266054230516224,0.1787146646874982,0.0,2.34331216,False,True
354,Li4MnCo2O7,mp-1174531,C2/m,4.1235732857819585,0.06514808285714224,1.141,3.48861115,False,True
355,Li4Si4Bi2O13,mp-758026,P-1,4.237451357250694,0.09596989706521697,2.3108999999999997,2.36494828,False,True
356,Li9Mn2Co5O16,mp-1373337,P1,4.292954720366958,1.0817266765625009,0.0,3.5412662,False,True
357,Li3Co2(SiO4)2,mp-777651,P2_1,3.0321744573798095,0.07333328633333291,0.02200000000000002,1.66912953,False,True
358,Li9Mn2Co5O16,mp-1175735,P-1,4.2941471801778475,0.18352163125000054,0.0,2.56006833,False,True
359,Li24Ti11CrO36,mp-779227,C2,3.3545742837660675,0.0032495474652805,1.4433999999999998,1.97691995,True,True
360,Li2SbSO4F3,mp-769153,P2_12_12_1,3.282837528988142,0.07450529727272492,4.3691,0.82379886,False,True
361,Li5Mn2P2(CO7)2,mp-768852,P2_1/m,2.739871348765479,0.04796230389999945,0.0,1.87421403,False,True
362,Li5Ti3O8,mp-756645,R-3m,3.4536558360360763,0.02244760843749738,0.0,4.78531112,False,True
363,Li9Mn2Co5O16,mp-1100668,Cm,4.195878340738541,0.14662002218750025,0.0,2.64116136,False,True
364,Li4CoOF4,mp-759652,I4/mmm,3.3071022200313607,0.04940287799999865,0.017400000000000304,2.33409768,False,True
365,Li3VPCO7,mp-861720,P1,2.690650685126568,0.08060403538461713,2.5652999999999997,3.30563036,False,True
366,Li5Mn(CoO4)2,mp-1174236,Cm,4.024842338366705,0.08947857343749721,0.0,2.62715143,False,True
367,Li6V3P8O29,mp-1177100,P1,2.5876465671517797,0.022949372346007024,1.5882999999999998,0.43162351,False,True
368,Li7Mn5O12,mp-1175385,P2/m,3.882332163884682,0.07047787645833381,0.0,3.22876035,False,True
369,Li2Cr(PO3)4,mp-774367,P2_1/c,2.3853744896584366,0.08003591940885624,3.3655,1.61851787,True,True
370,Li4Mn3(OF3)2,mp-753977,P-1,3.335675863741678,0.08165199733333317,2.2634999999999996,1.61662939,False,True
371,Li7Mn2(CoO4)3,mp-1174891,P2/m,4.083826329619186,0.0607682920833339,1.3423000000000003,3.56192574,False,True
372,Li8Mn3V(PO4)6,mp-768511,P1,2.8344364457474014,0.04054945809524213,0.40249999999999986,1.68675506,False,True
373,Li3Co2(SiO4)2,mp-1177732,P1,3.0603035079562266,0.08312741800000012,0.5561,1.75310579,False,True
374,Li6V3P6WO24,mp-758674,P1,3.2845715254694174,0.05927293509375531,1.5166999999999997,2.36131872,False,True
375,Li2SnP2O7,mp-863377,C2/c,2.893521091143941,0.0857903631249819,2.0935,1.60635198,False,True
376,Li3MnV(PO4)3,mp-774297,R3,2.8813681893908236,0.03364236668749765,0.0,1.64118969,False,True
377,Li3MnCoO5,mp-1174206,R-3m,3.7997926883268875,0.27258826549998894,0.0,2.52069614,False,True
378,Li4Cr3(CO3)6,mp-758282,P-1,2.892892264049399,0.04959073840725914,0.6537999999999999,3.13130167,False,True
379,Li7Co5O12,mp-1174274,C2/m,4.249189125387533,0.052355032083330144,0.9184000000000001,3.04652283,False,True
380,Li2HfO3,mp-770997,C2/m,6.5962655275566435,0.011109663333330744,4.1189,1.45756233,False,True
381,Li9Mn2Co5O16,mp-1100755,Cm,4.160158964391746,0.1268435406250008,0.0,2.71305054,False,True
382,Li7Mn4CoO12,mp-1175306,Cm,3.8915229708405903,0.10412373052083268,0.0,2.53417261,False,True
383,Li2MnPO4F,mp-1172968,P1,3.0080028169944337,0.06555735361111115,3.7342999999999997,5.48893828,True,True
384,Li2MgZrO4,mp-1222626,I-4m2,3.909733082641194,0.016150631874996435,2.9598000000000004,2.12841676,False,True
385,Li6CrO4,mp-772552,P4_2/nmc,2.4667885298650702,0.09565789454545559,0.45760000000000023,3.32832491,False,True
386,Li9Mn2Co5O16,mp-1175744,P-1,4.153365865332798,0.1109802678125007,0.0,2.14049744,False,True
387,Li9Mn2Co5O16,mp-1175481,P-1,4.188164534581054,0.08141165062500022,1.1871,3.4689939,False,True
388,Li7Mn4CoO12,mp-1640528,C2/m,3.9987372311733456,0.05942574072916518,0.3248000000000002,3.73834491,False,True