,formula,mp-id,crystal system,density,energy above hull,band gap,efermi,is gap direct,theoretical
1356,Li4Mn3O7,mp-1174323,P-1,3.8806412766963323,0.050791899285713704,0.4868999999999999,3.24841647,False,True
1357,Li9Mn2Co5O16,mp-1100673,Cm,4.169898839175393,0.0829220968750004,0.3653999999999997,3.09737022,False,True
1358,Li3V2(PO4)3,mp-774346,C2,2.872615580680119,0.04428007800002742,0.02190000000000003,3.1289122,False,True
1359,Li3Mo2(PO4)3,mp-26085,P2_1/c,3.4614758011101965,0.008899462249972068,4.1525,2.63988242,False,True
1360,Li9Co7O16,mp-1176084,C2/m,4.252784144813431,0.1766084768749998,0.0,2.50897618,False,True
1361,K8Li9Mn4O16,mp-757769,P1,2.7458910177191576,0.04617884925381688,0.43579999999999997,1.32011423,False,True
1362,Li9Mn2Co5O16,mp-1176095,P1,4.0897796868892575,0.12843715843750036,0.17649999999999988,2.56136615,False,True
1363,NaLi2MnPCO7,mp-1667394,P-1,2.7224305979892134,0.024327490448714073,3.5987999999999998,1.68912325,False,True
1364,NaLi5Mn2P2(CO7)2,mp-772515,P1,2.7566770692105336,0.05321185358973768,3.5368999999999997,2.11050033,False,True
1365,Li4V3P8O29,mp-863380,P1,2.5241365573050447,0.04911334015151425,0.8317000000000001,0.3178911,False,True
1366,Li3V(PO4)2,mp-26399,C2/m,3.097836547088385,0.026473023035688215,1.7555999999999994,2.9400577,False,True
1367,Li2Fe(CO3)2,mp-754028,C2/m,2.5558369708626603,0.10380948272727153,3.4101,0.7235193,True,True
1368,Li6V3P8O29,mp-1177035,Cc,2.5695607125619344,0.0210627306068778,1.3452,1.98185246,True,True
1369,Li32Ti3Cr13O48,mp-777558,P1,3.5259055280066876,0.018335241328126806,0.9914000000000001,2.28035455,False,True
1370,Li3MnV(PO4)3,mp-778303,P1,2.873298006136473,0.053198465937496664,0.6305000000000001,1.77556101,True,True
1371,Li3FeO3,mp-771894,P4_2/mnm,2.8788192972792666,0.07354536767857311,1.9077000000000002,0.17853545,False,True
1372,Li9Mn2Co5O16,mp-1175904,P1,4.230667089902495,0.19832329281250072,0.0,2.36505222,False,True
1373,Li9Mn2Co5O16,mp-1176227,P1,4.105976290080551,0.1336479621875002,0.2016,2.68371481,False,True
1374,Li4Fe(PO4)2,mp-31890,P2_1/c,2.6288480928997626,0.00899365566666166,3.6195000000000004,1.30212893,False,True
1375,Li2FePCO7,mp-768508,P1,2.734252563468084,0.011283076770851608,1.6345999999999998,1.0203906,False,True
1376,Li5VP2(O4F)2,mp-554656,P2_1/c,2.803738058234476,0.0061142279166661595,2.4559,1.59324745,False,True
1377,Li9Mn2Co5O16,mp-1175576,P-1,4.186748567210574,0.07221818937500046,1.1873999999999998,2.10381931,False,True
1378,Li2VBO4,mp-768177,P2_1/c,2.51713133551105,0.06957637781249915,1.8957,1.66049741,False,True
1379,Li4MnCo2O7,mp-1174459,P-1,4.062085197225827,0.1281382460714271,0.0,2.62429571,False,True
1380,Li2ScPCO7,mp-767341,P2_1/m,2.498540934293892,0.04728066791666308,4.0839,0.63005315,False,True
1381,Li6Fe5(P2O7)4,mp-705431,P-1,3.044738823808362,0.09018250081559565,0.0,3.93690607,False,True
1382,Li6V3P8O29,mp-760259,P1,2.5852266513102,0.02186739767209378,1.2873,0.66563177,False,True
1383,Li9Mn7O16,mp-1100546,P-1,3.934073227962508,0.03275550203125022,0.0,3.05835284,False,True
1384,Li9Mn2Co5O16,mp-1175853,P1,4.173620232422325,0.08045827843750075,0.5600999999999998,2.80086104,False,True
1385,Li3Mn2O5,mp-1173964,C2/m,3.837012062141707,0.05413734399999992,1.165,2.70179228,False,True
1386,Li2AlFeO4,mp-770702,P2_1/c,2.8659796981725534,0.10408989687500014,2.1325000000000003,1.2883091,True,True
1387,Li17V16O32,mp-761629,Cm,3.891574049232825,0.023542106076924085,0.8935000000000004,4.56971103,False,True
1388,Li9Mn2Co5O16,mp-1175494,P-1,4.210813911588038,0.06393405531250007,1.2599999999999998,3.44571943,False,True
1389,Li9Mn2Co5O16,mp-1176281,Cm,4.109299187891858,0.10383265937500052,0.0,2.80464362,False,True
1390,Li3Cr2P4HO14,mp-802351,P-1,2.667631340019396,1.5264137634002992,0.0,2.2483521,False,True
1391,Li7V3P8O29,mp-1176864,P1,2.5813987213930636,0.012965906094856372,0.7826,1.21449419,False,True
1392,Li9Mn2Co5O16,mp-1175676,P-1,4.183517539568229,0.09682414281250029,0.5457999999999998,3.06003683,False,True
1393,Li3MgNiO4,mp-776409,I4_1/a,2.9327781137712656,0.06544637776234286,0.9152,1.1060059,False,True
1394,Li7Mn4CoO12,mp-1641408,P-1,3.917968175263856,0.04374761135416527,0.6258000000000004,3.04088009,False,True
1395,Li2V(OF)2,mp-1302912,Cc,3.039956765646401,0.06477690142857462,1.9125,0.7488074,False,True
1396,Li3Bi(BO3)2,mp-768820,P2_1/c,4.289897848201216,0.0,3.2169,1.74266573,False,True
1397,Li3Fe(PO4)2,mp-757451,P2_1/m,2.7703667461643655,0.08345911803571138,1.1261,1.45185883,False,True
1398,Li5V3P8O29,mp-1177093,P1,2.5388616745133215,0.03269870020370291,1.1152,0.27996467,False,True
1399,Li2FePO4F,mp-25393,P1,3.127165604672007,0.0404007147222174,3.709,1.87602418,False,True
1400,Li5Fe2P2(CO7)2,mp-756326,P1,2.7473391455050433,0.033725149550006606,0.8182999999999998,1.8267524,False,True
1401,Li9Mn2Co5O16,mp-1176309,C2/m,4.182482856701781,0.08031263156250024,0.0,2.75271833,False,True
1402,Li9Mn2Co5O16,mp-1176068,P1,4.13116450479022,0.10704420906250078,0.1575000000000002,2.70673595,False,True
1403,Li5MnO5,mp-754580,C2,2.7407315752639465,0.0946106440909098,0.0,0.73464683,False,True
1404,Li6Cr2O7,mp-770871,P2/c,2.6233593581598202,0.06128280666666619,1.3235000000000001,1.35108819,False,True
1405,Li2VBO4,mp-770151,Pna2_1,2.966663454289707,0.09519480124999902,2.3718,2.76448959,True,True
1406,Li4V(PO4)2,mp-757313,P2_1/c,2.558526217022845,0.04929830350001474,2.3644,2.92763409,True,True
1407,Li14Cu9(P2O7)8,mp-762439,P-1,3.1765836836357355,0.06874082473685394,0.3940999999999999,2.24428074,False,True
1408,KLi3Zr2(Si2O5)6,mp-16055,P6/mcc,2.653218271305596,0.0,5.1498,0.62227051,False,True
1409,Li9Mn2Co5O16,mp-1176287,C2/m,4.237133494283536,0.056616181562500145,1.1147,3.52242814,False,True
1410,Li9Mn7O16,mp-1100495,C2/m,3.9248202303869,0.044812671406250004,0.0010999999999996568,2.95451341,False,True
1411,Li7(CoO3)2,mp-755498,P1,2.9811862085453065,0.06912259416666533,0.6775,1.39856424,False,True
1412,Li9Mn2Co5O16,mp-1175920,P1,4.238312863782094,0.0955377940625004,0.0,2.65468091,False,True
1413,Li6Fe3Ni(PO4)6,mp-771187,P1,2.9737127406409885,0.05528089729686858,0.0,0.9951358,False,True
1414,Li5Mn2CoO8,mp-1174333,P-1,3.7937940184537275,0.15379223000000053,0.0,2.30914354,False,True
1415,Li3CoPCO7,mp-1650352,P1,2.9031911329923985,0.06767942057692355,3.018,1.17952413,False,True
1416,Li3MnV(PO4)3,mp-1177560,P1,2.8922949956072372,0.030615788812497158,0.3131999999999999,1.65693205,True,True
1417,Li2VO3F,mp-760211,P1,3.087828807027458,0.10256271321428478,2.3227,0.40129251,False,True
1418,Li8(CoO2)5,mp-1641030,P-1,3.318151156282172,0.050670281548914176,0.6249000000000002,1.49691279,False,True
1419,Li2MnSi3O8,mp-754104,P2_1,2.6281321147974337,0.08494536821429222,3.2608,1.99730669,False,True
1420,Li7Mn2(CoO4)3,mp-1174905,P-1,4.008812325398662,0.1375127108333336,0.15980000000000016,2.7363503,False,True
1421,Li2CrSi3O8,mp-758277,P2_1,2.605938370468693,0.0558379292142952,3.1126000000000005,2.47562681,True,True
1422,Li2VP2O7,mp-772145,C2/c,2.4584634748135503,0.06013866000867196,2.3214999999999995,1.87917191,True,True
1423,Li9Mn2Co5O16,mp-1175717,P-1,4.233523242247242,0.13006150750000067,0.0,2.58743479,False,True
1424,Li8Cr(FeO4)3,mp-767681,P2,3.6702285599930202,0.09649571637153187,0.0,2.02082172,False,True
1425,Li3Cu2(SO4)3,mp-777767,P2_1/c,3.0432615760185686,0.0012185896874958857,3.3870000000000005,2.27064484,False,True
1426,Li3Sn(BO2)5,mp-768284,P-1,2.662149009302202,0.05273855105264236,3.761,1.21862061,False,True
1427,Li3NiPCO7,mp-766693,P1,2.9490606206249717,0.052158955961543185,3.1008999999999998,1.76035,False,True
1428,Li6Mn2C4SO16,mp-771387,Fd-3,2.6539547389641918,0.05105504543103123,3.7759,1.24619695,False,True
1429,Li10Ni4O9,mp-1185196,P4_2/nmc,3.302366275374799,0.10150985130434442,0.0,2.79959003,False,True
1430,Li5Mn2CoO8,mp-1174334,P2/m,3.912057409565713,0.06635660187500036,0.43620000000000037,2.26977398,False,True
1431,Li7Mn2(CoO4)3,mp-1174908,P-1,4.099772973546503,0.11972906250000026,0.0,2.76731807,False,True
1432,Li7Mn4CoO12,mp-1175348,Cm,3.8735619420384353,0.0758552996874986,0.09870000000000001,2.98072148,False,True
1433,Li2CoP2O7,mp-757411,P-1,3.0442637216142177,0.059862432847202385,2.6292,1.75239782,False,True
1434,Li9Mn2Co5O16,mp-1176121,P1,4.107843328828053,0.12465798906250036,0.033399999999999874,2.64732676,False,True
1435,Li24MnCr11O36,mp-770973,C2,3.572903906015372,0.030295012916666586,0.7498,2.08649753,False,True
1436,Li3Cr2(PO4)3,mp-831192,P1,2.9521620935541364,5.507899715750003,0.0,3.20772299,False,True
1437,Li9Mn7O16,mp-1100556,P-1,3.92483427804389,0.02522105984374967,0.8506,2.90400078,False,True
1438,Li4MnCo2O7,mp-1174631,P1,4.144729002527918,0.08224574285714148,0.6991999999999998,2.43689726,False,True
1439,Li5Mn3O8,mp-1174766,P-1,3.7387377593068716,0.10602531281250016,0.0,2.29987815,False,True
1440,Li2FeSiO4,mp-752913,Pc,3.0786168982585407,0.004189565937500639,2.852,2.18761339,False,True
1441,Li2NiP2O7,mp-758298,P2_1/c,3.111236461368596,0.04318886243055342,3.8393999999999995,1.60157365,False,True
1442,Na3Li3Fe2P2(CO7)2,mp-1176362,P1,2.8610028871969755,0.029491749615385032,3.9174999999999995,1.65781337,False,True
1443,Li4MnCo2O7,mp-1174670,P1,4.162031049931912,0.07418809499999846,1.0244,2.43891844,False,True
1444,Li4MnCo2O7,mp-1174486,P-1,4.064192890088353,0.12676833035714097,0.0040000000000000036,2.67112126,False,True
1445,Li4MnCo2O7,mp-1174729,P1,4.1086315596722365,0.1093787974999989,0.07609999999999983,2.57422039,False,True
1446,Li2CoP2O7,mp-757807,C2/c,2.8806587985082643,0.09244874451386931,2.1638,1.41451164,False,True
1447,Li9V3P8O29,mp-760842,P1,2.6325221657317948,0.03190900263602536,0.01540000000000008,3.31856429,False,True
1448,Na3Li3Mn2P2(CO7)2,mp-772498,P1,2.7739381400489855,0.02896668153845905,2.1898,3.03153752,False,True
1449,Li6V3P8O29,mp-1176902,Cc,2.5863589943770755,0.0247313191938332,1.4619,2.08831867,False,True
1450,Li6V3P8O29,mp-773684,Cc,2.575788114829142,0.02236645723731101,1.4136,1.97047397,False,True
1451,Li2H6PtO6,mp-1210772,P-31m,4.271863371051872,0.06378987905555178,2.5297,0.57831604,False,True
1452,Li2BSbO4,mp-770654,P2_1/c,3.6594144317659185,0.06390838531249976,1.6851999999999996,2.70604484,False,True
1453,Li6V3P8O29,mp-757882,P1,2.5782611171258036,0.02748987332426811,0.02079999999999993,1.20472783,False,True
1454,Li3Co2(SiO4)2,mp-756892,C2,2.9307392318794356,0.09660675466666646,0.4292,1.22295536,False,True
1455,Li12VFe3P4(CO7)4,mp-766566,Pm,2.753376673451687,0.052558332239457606,2.3267999999999995,5.88437004,False,True
1456,Li2V(CO3)2,mp-759889,C2,2.1857416988449647,0.07347016281250252,2.6134000000000004,1.59306975,False,True
1457,Li6Cr3Ni(PO4)6,mp-757295,P1,3.0323093457804693,0.04943780500000905,2.3592,1.85745951,False,True
1458,Li9Mn7O16,mp-1100558,P-1,3.938156529173296,0.03090928171874996,0.5974000000000004,3.62319195,False,True
1459,Li2MnO2F,mp-1275690,C2,3.5664826163056933,0.024831874999994952,1.0934,3.45410424,False,True
1460,Li4MnCrO6,mp-768620,P1,3.651244414363816,0.03786508041665382,0.7531000000000003,2.01535521,False,True
1461,Li6V5O12,mp-764771,P1,3.7352247484960084,0.048258663641299826,0.6765000000000003,3.50582382,False,True
1462,Li4Mn2(PO4)3,mp-764125,P-1,2.8691316628957972,0.04116079416662455,0.4877999999999998,1.75252282,False,True
1463,Li4V3P8O29,mp-1177292,C2,2.538950741975434,0.056085701515150355,1.1292,1.28694623,False,True
1464,Li2VSiO4,mp-753369,Pc,2.940462765026633,0.09885150326924741,1.7175000000000002,3.95189516,False,True
1465,Li2CoO3,mp-1173883,P-1,3.8070857393971314,0.10922471083333374,0.18310000000000004,1.87879461,False,True
1466,Li9Mn2Co5O16,mp-1100672,Cm,4.19018823628359,0.10015586812500032,0.0,3.28672599,False,True
1467,Li7Mn4CoO12,mp-1650552,C2/m,4.000764618964601,0.03388270489583167,0.0,3.11695818,False,True
1468,Li7Mn2(CoO4)3,mp-1174505,C2/m,4.084636340566516,0.04788329000000058,1.5918,1.96299401,False,True
1469,Li3P3WO11,mp-798767,P-1,3.982688250406529,1.1267937539814703,1.0703,3.33635115,False,True
1470,Li7Bi2P7O24,mp-759424,P2/c,3.4483942917911543,0.05413797156250144,4.2136000000000005,1.39611301,False,True
1471,Li9Co7O16,mp-1175413,P-1,4.374706490955927,0.052332311875000315,0.006699999999999928,2.65660125,False,True
1472,Li4MnCo2O7,mp-1174817,Cm,4.101679308174397,0.13246635214285618,0.0,2.62741665,False,True
1473,Li3V(H4O3)4,mp-1198234,Pc,1.5941935274030787,0.009969585156246907,3.9924,-1.84248338,True,True
1474,Li3VSi4(HO6)2,mp-1266205,P-1,2.4633348100642527,0.018298937329546128,2.3965000000000005,1.86365317,False,True
1475,Li3VOF4,mp-780660,P1,2.721241659082303,0.09991684416666757,1.5642,2.99218116,False,True
1476,Li9Mn2Co5O16,mp-1100649,Cm,4.144220603543517,0.12342532343750001,0.0,2.53975288,False,True
1477,Li3MnCoO5,mp-1174099,C2/m,3.982746722517979,0.06903710149998954,0.0,2.55190341,False,True
1478,Li2NiO2F,mp-758524,P-3m1,3.9383275463396243,0.012050426388885427,0.0,2.48660793,False,True
1479,Li9Mn2Co5O16,mp-1100582,Pm,4.158114742638044,0.10699579843750051,0.014000000000000234,2.7003933,False,True
1480,Li9Mn2Co5O16,mp-1176201,P1,4.101339923634129,0.1289714868750007,0.08440000000000003,2.57504001,False,True
1481,Li5Cr2P2(CO7)2,mp-1177167,P1,2.668608692557618,0.0544315421624999,1.0114,2.78798967,False,True
1482,Li2NiOF2,mp-753392,P4/nmm,3.9283094251588278,0.03807296499999957,1.6075999999999997,3.06459005,False,True
1483,Li2Mo(PO4)2,mp-540296,P2_1,3.2977884008500866,0.03655212846155731,1.5303,1.89977615,False,True
1484,Li9Mn2Co5O16,mp-1175671,P-1,4.192451693896761,0.11697464781250044,0.0484,2.90746097,False,True
1485,Li3VSi2O7,mp-766120,P2_1,2.8248758902850253,0.02810876908655846,2.2777000000000003,2.95323015,True,True
1486,Li6V3P8O29,mp-1176938,P1,2.576755378364067,0.027429118106875983,1.0791,0.72625941,False,True
1487,Li3V2(O2F)2,mp-765943,P-1,3.2611945631728467,0.05961149079544281,0.6649,1.66756214,False,True
1488,Li2Ti(BO3)2,mp-759926,P2_1/c,2.5230015118264233,0.04924956535712344,2.9516,0.46083666,False,True
1489,Li2NiP2O7,mp-32383,P1,3.0469640191517273,0.024345778472220303,3.8336000000000006,5.60180152,False,True
1490,Li4NpO5,mp-9159,I4/m,5.909792811497805,0.0,0.5886000000000005,4.34861824,False,True
1491,Li2VP2HO8,mp-754990,P2_1,2.8937270591767885,0.0009663069817085201,2.0854999999999997,2.05093088,True,True
1492,Li2VPO5,mp-757041,P2_1/c,3.090662888538939,0.07744791870371515,1.5391999999999997,4.85132765,False,True
1493,Li2TeO3,mp-27231,C2/c,3.893618770821321,0.0,3.5802,0.99783234,False,True
1494,Li3V(PO4)2,mp-757334,C2/c,2.9987365810955096,0.028430997678546177,3.0446999999999997,2.59375912,False,True
1495,Li2VPO5,mp-775928,P1,3.128152567208301,0.08917004995371425,1.2372999999999998,3.46105779,False,True
1496,Li2MnSi3O8,mp-757743,P2_1,2.594230846746114,0.0756900957142923,2.5157999999999996,2.57131963,True,True
1497,Li4MnCo2O7,mp-1174738,P1,4.0711608076355015,0.12632356249999876,0.08260000000000023,2.59973138,False,True
1498,Li7Mn4CoO12,mp-1666304,Cm,3.963887013417013,0.056316363854165274,0.0,3.13079726,False,True
1499,Li3NbP3O11,mp-757765,P-1,3.2592503367480323,0.10936196333827919,0.7053000000000003,4.32808988,False,True
1500,Li5Mn3O8,mp-1174758,P-1,3.793099303533034,0.06742396468749945,0.6356999999999999,3.4553959,False,True
1501,Li4MnCrO6,mp-768594,P1,3.6321226832370717,0.03770428562498829,0.7532000000000001,2.16588984,True,True
1502,Li9Mn2Co5O16,mp-1175769,P1,4.247800812842163,0.07175045593750085,0.8947999999999996,2.50619537,False,True
1503,Li3Ni(BO3)2,mp-770880,P-1,2.5557324896614304,0.06549216428573867,0.9225000000000001,0.27490799,True,True
1504,Li4Co3O7,mp-1174250,C2/m,4.17583937316042,0.06497005285714064,0.3229000000000002,2.44977402,False,True
1505,Li4CrO5,mp-770688,C2/c,2.6502916795237175,0.020737729166665275,1.1333000000000002,0.41059156,False,True
1506,Li9Mn2Co5O16,mp-1175411,P-1,4.221084722671319,0.09305194968750019,0.0,2.64846947,False,True
1507,Li7Mn4CoO12,mp-1175283,P1,3.875106542173359,0.08323159968749838,0.2643,2.65582337,False,True
1508,Li2CoSi3O8,mp-1262735,P2_1,2.603777474632433,0.0691330803571466,3.3331999999999997,1.71116164,True,True
1509,Li6V3P8O29,mp-772557,P-1,2.580199114972064,0.02145259723731119,1.4152,0.68036976,False,True
1510,Li7Mn2(CoO4)3,mp-1175015,Cm,4.042309487045818,0.10115450041666652,0.27470000000000017,2.38605844,False,True
1511,Li7Ti3(SiO6)2,mp-766202,C2/m,3.565982986192485,0.07470352020833637,0.0,6.45465113,False,True
1512,Li3Mn2(PO4)3,mp-31969,P2_1/c,3.052389124604176,0.010057429875049095,1.0846999999999998,1.41493779,False,True
1513,Li7Mn2(CoO4)3,mp-1174914,P2/m,4.055509771107105,0.1438711125000003,0.0,3.07077563,False,True
1514,Li3Sn(BO3)2,mp-770286,P-1,3.136988821919251,0.05945923153646593,1.5029,2.0401865,False,True
1515,Li7Mn2(CoO4)3,mp-1174527,C2/m,4.076202915797792,0.15583248375000025,1.0262000000000002,2.16729708,False,True
1516,Li9Mn2Co5O16,mp-1175912,P-1,4.137044341865363,0.10435128656250026,0.0,3.07471601,False,True
1517,Li7Mn2(CoO4)3,mp-1175209,P-3m1,3.955501588227001,0.42895758750000024,0.0,2.6457357,False,True
1518,Li4MnCo2O7,mp-1174437,P-1,4.168746008472217,0.10384263357142753,0.0,2.8693223,False,True
1519,Li7Mn4CoO12,mp-1667041,C2/m,3.997152843433004,0.01788045531249871,0.7709000000000001,2.92649164,False,True
1520,Li3Ni2(PO4)3,mp-26275,R-3,2.9991884247549505,0.06177275177082908,0.10630000000000006,1.39059193,True,True
1521,Li3(FeO3)2,mp-1272244,P1,3.5791947162461293,0.07144341597402448,0.0,1.34543699,False,True
1522,Li32Mn5Cr11O48,mp-781106,C2,3.622415406084389,0.04900165416666358,0.0,2.30616025,False,True
1523,Li7VO5F,mp-1392200,P1,2.585000812297426,0.9903266055357136,1.3787,1.70614558,False,True
1524,Li4CrO5,mp-1374220,P-1,3.0698317161110595,1.2612754881666657,0.0,3.56065127,False,True
1525,Li4MnCo2O7,mp-1174544,P-1,4.162852704777353,0.10853560464285561,0.0354000000000001,2.90192069,False,True
1526,Li5V3P8O29,mp-850001,P1,2.5706900959921803,0.034588789648148044,0.8751000000000001,0.69286209,False,True
1527,Li2FeSiO4,mp-1177998,P2_1,2.9263662835536874,0.0221806803125002,2.9997,4.68586582,False,True
1528,Li9Mn2Co5O16,mp-1176078,P1,4.147154739255598,0.11376873437500024,0.0,2.52175883,False,True
1529,Li9Mn2Co5O16,mp-1100661,Cm,4.143831689312603,0.16699973468750073,0.0,2.48833206,False,True
1530,Li6V2OF11,mp-1378948,P1,2.9198618371375615,0.6401748972499917,1.8051000000000001,0.0538596,True,True
1531,Li6MnAlO6,mp-770706,C2/c,2.9130192075763492,0.10537344776785673,0.7321,3.21654728,False,True
1532,Li9Mn2Co5O16,mp-1175417,P-1,4.156746052106077,0.07725525312500015,1.2222,2.2008877,False,True
1533,Li2V(SiO3)2,mp-863421,Pmn2_1,2.9242384279517952,0.07668076943182722,1.6437,4.67811765,False,True
1534,Li2PtO3,mp-531826,C2,7.6862653000641314,0.0,1.734,2.92706407,False,True
1535,Li3V2P4(HO8)2,mp-1177492,P1,2.902494918203318,0.06489005925925806,1.0953999999999997,1.78338546,False,True
1536,Li9Mn7O16,mp-1100534,P-1,3.934645549057647,0.03445326109375024,0.0,3.09777678,False,True
1537,Li7Mn2(CoO4)3,mp-1175220,Cm,3.9690531287370994,0.1444142737500007,0.0,2.87096938,False,True
1538,Li3Al(CoO3)2,mp-1222590,P-3m1,4.107046427154454,0.04562839354166304,0.8599000000000001,4.0094511,False,True
1539,Li2V(OF)2,mp-753161,R3m,3.059306749222083,0.034763939642860286,0.0,1.86273958,False,True
1540,Li9Ga3P8O29,mp-560058,P-3c1,2.8676520648987593,0.009712206513605715,3.3283000000000005,1.10660147,True,True
1541,Li9Mn2Co5O16,mp-1176186,P1,4.136587543168913,0.25781613750000076,0.0,2.45073041,False,True
1542,Li6Ti2O7,mp-772190,P2_1,2.302452983490755,0.08523968933333403,3.9246,-0.2763563,False,True
1543,Li4V3P8O29,mp-1177218,P1,2.532116814095535,0.048040960037877056,0.2899999999999999,0.55824759,False,True
1544,Li5V3P8O29,mp-773042,P1,2.5571672801912033,0.04130227742592574,0.0,1.73603335,False,True
1545,Li10Cu(SiO5)2,mp-756983,C2/m,2.4439279972811074,0.05734964874999804,2.5039,0.99418849,False,True
1546,Li4MnCo2O7,mp-1174783,C2,4.151064378890419,0.16763885857142657,1.1574,2.34578549,False,True
1547,Li3BiH8O7,mp-769868,P-1,3.512433817616096,0.04492296473683943,4.0181,0.42647264,False,True
1548,Li4Zr3O8,mp-765573,P2/c,4.182429405834211,0.0448760370000052,3.6980999999999997,0.99727922,False,True