,formula,mp-id,crystal system,density,energy above hull,band gap,efermi,is gap direct,theoretical
970,Li3Cr2P4HO14,mp-1348170,P-1,2.667631340019396,0.667927238816965,1.3495,2.41180508,False,True
971,Li3Mn2O5,mp-1174157,R-3m,3.652137374276473,0.23321861099999985,0.0,2.52801405,False,True
972,Li7Mn5O12,mp-1175357,P2/m,3.871178447644877,0.04639676958333361,1.2066,3.86057035,False,True
973,Li2CuSiO4,mp-760485,P2_1,3.3011218270244767,0.1193575893750003,0.0,2.28787454,False,True
974,Li4CoO3F,mp-1406703,P1,2.7355844678175014,1.2775590072222185,0.08319999999999994,1.33325692,False,True
975,Li2MnO2F,mp-1305321,P-1,3.5511967643033855,0.006985638333329547,1.7081000000000002,2.03579604,False,True
976,Li2VOF4,mp-765589,P2_12_12_1,2.7625777271525807,0.06443458062499996,2.6196,-0.51269986,False,True
977,Li2SeO4,mp-4855,R-3,2.9988979939704805,0.0,3.8324,-0.94785075,False,True
978,Li3MnPCO7,mp-760110,P1,2.7296188061611306,0.0610974507692319,3.5059,2.14778602,False,True
979,Li5(CoO3)2,mp-752662,Cmmm,2.965699919220098,0.20991672076922452,0.0,0.28822843,False,True
980,Li3Fe2(PO4)3,mp-765598,Ia-3d,3.3983198680051223,0.04843130162500664,2.1855,2.46078318,True,True
981,Li13(FeO6)2,mp-753008,P1,2.631704291621671,0.06663002722222355,0.0,0.33036793,False,True
982,Li4Mn3O6F,mp-753146,C2/m,3.886270832459176,0.0439810682142836,0.0,3.19432645,False,True
983,Li9Mn2Co5O16,mp-1100560,Pm,4.108910598652977,0.13822939250000044,0.0,2.66564488,False,True
984,Li13Mn3Nb2O16,mp-764234,Cm,3.656946329646145,0.09219282198528855,1.0312999999999999,2.17745822,False,True
985,Li4MnCo2O7,mp-1174684,P1,4.109654860545257,0.12047087678571256,0.2605999999999997,2.59605971,False,True
986,Li9Mn7O16,mp-1100555,P-1,3.9319194795926213,0.02876971015624985,0.6400000000000001,3.02106958,False,True
987,Li4V3P8O29,mp-764988,P1,2.539641292324282,0.047468663787877396,0.8612,0.43657041,False,True
988,Li5MnO3F,mp-1291341,P-1,2.4756584917518247,0.07888846033333241,1.383,2.07208872,False,True
989,Li2CoSiO4,mp-753828,Pmn2_1,3.246784757467026,0.004405288124993412,2.4169,2.26060658,False,True
990,Li2In(PO4)2,mp-1210850,P2_1/c,3.3096176089159113,0.06079221725961137,0.13559999999999994,1.1486223,True,True
991,Li2V(CO3)2,mp-1571229,C2,2.34931429482937,0.08321377053977486,2.8065999999999995,1.81950687,True,True
992,KLi4CrO5,mp-756262,P-1,2.787134418932314,0.07798338488635803,1.0179,1.27604183,False,True
993,KLi3Ca7Ti2(Si6O19)2,mp-1197175,C2/c,2.782750824604516,0.029059551390663074,0.0121,1.49108851,False,True
994,Li3MnPCO7,mp-771340,P2_1,2.6554373112283445,0.04733827346153863,3.8050999999999995,1.79853412,False,True
995,Li9Cr5O12,mp-761270,C2/m,3.616011913494767,0.06579696038461602,1.1694999999999998,3.31773465,False,True
996,Li2H2SeO5,mp-24165,P2_1,2.439781874633817,0.009272727416666626,3.9951999999999996,-1.42889416,False,True
997,Li2Mo(PO4)2,mp-1101539,P2_1,3.1149127187472416,0.0325644353846366,1.7283,3.20578808,False,True
998,Li3V(PO4)2,mp-26619,P2_1/c,3.0648482959887375,0.030482326785688407,2.1002,2.90144868,False,True
999,Li2WO12,mp-1202844,P2_1/c,2.4879723137248644,0.3470783231555572,0.0041999999999999815,-1.5714043,False,True
1000,Li3Cr(PO4)2,mp-26617,C2/c,3.1061724399792725,0.030810064107138935,2.6333999999999995,2.55263005,False,True
1001,Li5Mn(CoO4)2,mp-1174059,C2/m,3.9311099732374837,0.08069701718749744,0.1180000000000001,1.78367458,False,True
1002,Li7Ti2P7O24,mp-757327,P2/c,2.6847421575220283,0.09866973784167143,0.22489999999999988,4.55903816,True,True
1003,Li6Fe(SiO4)2,mp-753932,P-1,2.686266259947979,0.06181049338235223,3.7361000000000004,1.92038283,False,True
1004,Li2CrP2O7,mp-689934,C2/c,2.7517506316257996,0.03641376291669296,3.4910000000000005,1.67661742,False,True
1005,Li2Co(CO3)2,mp-759781,P2_1/c,2.297496342506149,0.03963180045454795,2.2671,-0.26750318,False,True
1006,Li12CrFe3P4(CO7)4,mp-766534,Pm,2.769041546013684,0.054632407992785126,2.4315999999999995,3.03244806,False,True
1007,Li3VCrP2(O4F)2,mp-753680,P1,3.0821377614968846,0.02698415408089172,0.5934999999999997,3.10475822,False,True
1008,Li7Mn2(CoO4)3,mp-1175053,P1,4.072266343728119,0.11311282625000008,0.0,2.59107694,False,True
1009,Li6(CoO2)5,mp-1177024,P1,3.262266240125126,0.12869550151785614,0.12539999999999996,1.10905463,True,True
1010,Li2SeO4,mp-1181148,P1,2.5265584335185958,0.43027797642857113,1.2517,0.63910281,False,True
1011,Li2UO4,mp-9607,Pnma,6.489402353917839,0.0,2.0119000000000002,2.44985854,False,True
1012,Li2MnP2O7,mp-776396,P2_1,2.7760898188945684,0.04230106624999941,0.0,5.88863776,False,True
1013,Li17(Co4O9)2,mp-758913,P1,3.0676766611234902,0.1062822481395358,0.666,0.66471067,False,True
1014,Li2FeSiO4,mp-758823,Pna2_1,3.0100191965323493,0.008523985000000067,2.6104000000000003,2.09699906,False,True
1015,Li9Mn2Co5O16,mp-1176053,P1,4.172723120697835,0.0962537006250006,0.09149999999999991,2.6561249,False,True
1016,Li9Mn2Co5O16,mp-1100656,Cm,4.161493890745167,0.11361259156250014,0.0,2.8087331,False,True
1017,Li6Ti3P8O29,mp-778149,P1,2.5485703961014354,0.026584770126813595,2.1196,3.03386361,True,True
1018,Li4MnCo2O7,mp-1174613,C2/m,4.055056461223643,0.12294934142857006,0.12300000000000022,2.6641924,False,True
1019,Li3MnCoO5,mp-1174139,P-1,3.999332444717794,0.06951605649998971,0.9888000000000003,2.34459366,False,True
1020,Li4MnCo2O7,mp-1174475,P-1,4.064378929064206,0.1249208746428554,0.018200000000000216,2.63346393,False,True
1021,Li5ReO6,mp-5061,C2/m,5.152445331878141,0.0,2.1582999999999997,1.19238264,False,True
1022,Li2MnPO4F,mp-25395,P1,3.0449812979619892,0.047881710277776435,3.3516,2.00542854,True,True
1023,Li9Mn2Co5O16,mp-1100671,Cm,4.1642123547687975,0.08566813968750076,0.1631999999999998,3.33615445,False,True
1024,Li7Mn4(P2O7)4,mp-1177127,P1,2.9366463137915644,0.015170889946780619,0.07269999999999999,1.75472471,False,True
1025,Li7Co5O12,mp-1174242,P2/m,4.170744437115225,0.10216966124999782,0.0,2.45912392,False,True
1026,Li2Fe(BO3)2,mp-766461,P2_1/c,2.6297786107832843,0.08187245944696553,0.0,0.02986171,False,True
1027,Li4Co3O3F4,mp-759580,I4/mmm,4.1745574474952,0.08338494874999913,0.0,2.70740518,False,True
1028,Li5Cu(PO4)2,mp-778743,Pm,2.8939981502657,0.033105388593750895,1.7069,3.79293228,False,True
1029,Li5Co2(PO4)3,mp-780435,P2_1,3.0604929940685484,0.30309614056818557,2.7403999999999997,1.77749457,False,True
1030,Li5Fe4(P2O7)4,mp-849563,P1,3.020572076807985,0.06331287370370653,0.7775000000000003,2.88156627,False,True
1031,Li2V(BO2)5,mp-772429,P2_1/c,2.2717484961164884,0.03881676402771106,2.5921,0.63153339,False,True
1032,Li5Co3O8,mp-1174225,R-3m,3.909850851668735,0.2240623568749971,0.0,1.82850634,False,True
1033,Li3Ni(BO2)5,mp-771081,P-1,2.629166753029146,0.061017205263163454,3.8409999999999997,5.0269243,True,True
1034,Li6V3P8O29,mp-1176929,P1,2.5678723120957994,0.02626849136774645,0.08830000000000005,1.38470883,False,True
1035,Li9Mn2Co5O16,mp-1175554,P-1,4.200946673488818,0.08904779093750026,0.0,2.44240381,False,True
1036,Li7Mn5O12,mp-1652638,P-1,3.8546911785316977,0.031027498750000326,0.7618,2.83178432,False,True
1037,Li2VSi4O11,mp-765578,I4/m,2.6731343948409827,0.06349676083333478,0.9102999999999999,2.46712535,False,True
1038,Li9Mn7O16,mp-1100497,C2/m,3.9360770706450334,0.026467518281250157,0.9811000000000001,2.80375036,False,True
1039,Li2Fe(CO3)2,mp-759605,P2_1/c,2.2412451719722326,0.031392951818181025,3.9379000000000004,0.38146748,False,True
1040,Li9Mn2Co5O16,mp-1175950,P1,4.196567803957896,0.08151429281250078,0.8140000000000001,2.36341648,False,True
1041,Li4Ni3O3F4,mp-753092,I4/mmm,4.327492339466588,0.0403605753571421,2.1682,3.65053107,False,True
1042,Li3Mn2(PO4)3,mp-32024,Cc,2.8923415617404666,0.03291225475004911,0.7329999999999999,1.3824841,True,True
1043,Li3Mn2(SiO4)2,mp-769543,P2_1,2.8866238807425195,0.08439471036110024,0.0,1.47176988,False,True
1044,Li7V3P8O29,mp-1177038,P1,2.607868730744488,0.02215078992464381,0.09839999999999982,2.59086885,False,True
1045,Li4MnCo2O7,mp-1174468,P-1,4.128510888568673,0.08664430928571232,0.5836999999999999,2.46668229,False,True
1046,Li4MnFe2(BO3)4,mp-766479,Pc,3.0072089557328225,0.061296598260872415,1.6559000000000001,1.3524161,False,True
1047,Li3MnV(PO4)3,mp-1177591,P1,2.9436336076630325,0.06441430718749785,0.6613,1.98436944,False,True
1048,Li4Co2OF7,mp-1311086,Cc,3.2329090675820975,0.03555682535714233,1.3677000000000001,-0.38003243,False,True
1049,Li5Mn2CoO8,mp-1273567,P-1,3.875156926793194,0.07359285500000023,0.3908999999999998,2.64461361,True,True
1050,Li3FeOF3,mp-777299,P2/c,3.2761315224697536,0.1004714287499997,3.6437,1.39859399,False,True
1051,Li2BrO,mp-1222694,P4/mmm,2.429071266855872,0.71160174125,0.0,-0.45024763,False,True
1052,Li6MnV3(PO4)6,mp-1177094,C2,3.147009330396602,0.05227569039060853,0.7795999999999998,3.39640772,False,True
1053,Li4VP2O9,mp-758268,Pna2_1,2.5723982914663557,0.07214360609374992,3.2250999999999994,0.64312629,True,True
1054,Li9Mn2Co5O16,mp-1100655,Cm,4.172042465759734,0.1127588321875006,0.0,2.94742377,False,True
1055,Li9Co7O16,mp-1175482,P1,4.253481365548801,0.09520659343750015,0.0,2.36874766,False,True
1056,Li2VO2F,mp-777497,C2/m,3.4531559990349807,0.047474720833329265,1.1354000000000002,3.24136582,False,True
1057,Li3Sn2(PO4)3,mp-585408,R-3,3.1246315839159817,0.047562229583326676,2.8054999999999994,1.46094429,False,True
1058,Li7Mn2(CoO4)3,mp-1175016,P1,4.062651565412864,0.10655452208333305,0.0806,2.74943799,False,True
1059,Li8V3P8O29,mp-882371,Cc,2.620158183572472,0.02135030874994559,1.0099,2.45976063,False,True
1060,Li24Mn7Cr5O36,mp-777641,P1,3.659877038472325,0.031222303958334585,1.0745,2.17565042,True,True
1061,Li7Mn5O12,mp-1175354,C2/m,3.8524457566792076,0.022280215000000325,1.2487999999999997,3.76718254,False,True
1062,Li2Sn(SO4)2,mp-780576,Pbca,2.921429538693697,0.05154944538461681,3.7469,1.94057356,False,True
1063,Li3MnVP2(O4F)2,mp-752825,P1,3.100084998392191,0.03530046588236058,1.2013000000000003,2.11511623,False,True
1064,Li4Co2OF7,mp-1299574,P1,3.246518512791991,0.03599184357142793,1.3216999999999999,-0.2916691,False,True
1065,Li7Mn2(CoO4)3,mp-1174925,P1,4.107725831113015,0.06509402083333438,0.9586999999999999,3.3469818,False,True
1066,Li9Fe3P8O29,mp-554093,P-3c1,2.6977886356228344,0.002551181836742522,2.4154,0.88159216,False,True
1067,Li3Al(FeO3)2,mp-770750,P2_1/c,3.356593674568086,0.06230388354166738,1.9011,3.98203779,True,True
1068,Li5Mn2CoO8,mp-1174324,P-1,3.792061044910172,0.15332037750000005,0.0,2.2329156,False,True
1069,Li4V3P8O29,mp-1177197,P1,2.505953094779681,0.04689758753787743,0.9103000000000001,0.19573218,False,True
1070,Li7Mn4CoO12,mp-1175149,P-1,4.035024440844702,0.03497140760416517,0.6741000000000001,3.65946343,False,True
1071,Li6TeO6,mp-782005,R-3,3.2851221873402427,0.0574557723076925,2.7973,1.36290643,False,True
1072,Li7Mn5O12,mp-1650669,P-1,3.852847688905365,0.035111720000000624,0.5268999999999999,2.858968,False,True
1073,Li4MnCo2O7,mp-1174599,P1,4.133903658821715,0.07504840678571334,1.3776000000000002,3.52605236,False,True
1074,Li5Mn(CoO4)2,mp-1174137,Cm,3.9279789659245026,0.08219701031249738,0.0,2.3561859,False,True
1075,Li2CrSiO4,mp-758188,Pnma,3.01758773459568,0.057609111979162186,1.2517,3.33142222,False,True
1076,Li5Co3O8,mp-1174153,P-1,4.080199119051095,0.04217927374999775,0.2711000000000001,2.36347404,False,True
1077,Li7Co5O12,mp-1640700,P2/m,4.420678795275088,0.018036595833330615,0.5946000000000002,2.67730665,False,True
1078,Li3MnP2HO8,mp-759656,P2_1,2.8084068904838606,0.040862552166668564,4.417,1.70107475,True,True
1079,Li32Mn3Cr13O48,mp-777691,P1,3.596551707216593,0.02961183458333494,1.0413999999999999,2.06485853,False,True
1080,Li3Mn2(SiO4)2,mp-754026,P1,2.936221115413443,0.09013947336110117,0.0,1.44371405,False,True
1081,Li24Mn7Cr5O36,mp-777643,P1,3.680613209317202,0.031616834236111835,1.037,2.08343161,False,True
1082,Li6B3SbO9,mp-769411,P2_1/c,2.829313999561997,0.054596386535095576,3.6036,2.30246085,True,True
1083,NaLi2MnPCO7,mp-771003,P-1,2.722329672016196,0.02594852871794462,3.5916,2.10770619,False,True
1084,Li6TiFe3(PO4)6,mp-758142,P1,2.925592949773846,0.054745187187499766,1.3799000000000001,2.37057595,True,True
1085,Li5V3P8O29,mp-1177056,P1,2.549765709745783,0.035937790203702136,0.0806,1.49797967,False,True
1086,Li2NiBO4,mp-771080,Pna2_1,3.35769999975515,0.07351413064902967,0.9314,1.86466081,True,True
1087,Li6FeCo3(PO4)6,mp-768625,P1,3.092274750483451,0.09900457923437855,0.5425000000000002,1.49813846,True,True
1088,Li5Sn(P2O7)2,mp-757844,P-1,3.0487068398136716,0.0859943243229262,0.09850000000000003,3.45869865,False,True
1089,Li32Ti3Cr13O48,mp-776968,P1,3.5460430892737542,0.018839715390627454,0.9361999999999999,2.3739598,False,True
1090,Li2CrP2O7,mp-1101604,C2/c,2.785954849211951,0.030548145416693373,3.4997,1.36554329,True,True
1091,Li10Sn(PO6)2,mp-696136,P4_2mc,2.6551868829192187,0.14144100573333507,3.2157,0.63654189,False,True
1092,Li9Mn2Co5O16,mp-1175779,P1,4.199948219977169,0.07954225531250003,1.1128999999999998,2.2487672,False,True
1093,Li9Mn2Co5O16,mp-1176179,P1,4.1371215607984055,0.11432742031250065,0.11730000000000018,2.7300247,False,True
1094,Li9Mn7O16,mp-1100493,C2/m,3.8945583439475397,0.04226592359374948,1.0526,3.76888089,False,True
1095,Li3MnCoO5,mp-1174284,Cm,3.8808986665349146,0.10973820849998894,0.0,2.53610172,False,True
1096,Li3TlPCO7,mp-771334,P2_1,3.992918115522007,0.11016473423077233,0.0,2.24589955,False,True
1097,Li6Co5(P2O7)4,mp-504376,P-1,3.144418932196734,0.05001032562057439,0.31179999999999986,2.53370221,True,True
1098,Li8(FeO2)5,mp-764936,Cm,3.184732025028769,0.10480181663043364,0.0,1.57408079,False,True
1099,Li4GeO4,mp-4558,Cmcm,3.2114973377548215,0.0,4.156499999999999,0.06373148,False,True
1100,Li2Ni(PO3)4,mp-863424,P2_1/c,2.578456521770772,0.05872190521930065,4.0470999999999995,0.36797985,False,True
1101,Li6V3P8O29,mp-772104,P1,2.569983400884395,0.023214802346006813,0.4661000000000002,1.17088509,False,True
1102,Li4V2C4SO16,mp-769578,F222,2.5139630708732623,0.09088263138889374,0.6354,1.76032735,False,True
1103,Li2VP2O7,mp-767710,C2/c,2.8742812001901354,0.09061746667533921,0.0,4.99703364,True,True
1104,Li2VSiO4,mp-766405,Pnma,2.9814632238258,0.07531909451924701,1.6609999999999996,3.72850116,True,True
1105,Li5SbO5,mp-29364,C2/m,3.7158205379603086,0.0,2.914,1.81824752,False,True
1106,Li2CoP2O7,mp-1639240,P1,3.0475375099252333,0.06291394118053528,0.06510000000000016,3.02199161,False,True
1107,Li4CoO4,mp-778671,Pbca,2.5711864957882993,0.16652374680555582,0.8803000000000001,0.03900912,False,True
1108,Li9Mn7O16,mp-1100496,C2/m,3.8902530911569495,0.03990276703124973,1.1751,3.80764566,False,True
1109,Li7Mn2(CoO4)3,mp-1174877,P-1,4.022646169810816,0.1268747741666667,0.0,2.51968236,False,True
1110,Li6V2C4SO16,mp-776436,Fd-3,2.6520294792336263,0.07169582502022287,2.8395,2.73103719,False,True
1111,Li7Mn4CoO12,mp-1175291,P1,3.8868552820820605,0.08373064302083222,0.2083999999999997,2.70051816,False,True
1112,Li6FeNiP2(CO7)2,mp-753528,Pm,2.8403699552867523,0.04133798942307809,2.6653999999999995,2.19998031,False,True
1113,Li9Mn2Co5O16,mp-1175780,C2,4.148534746658404,0.07772427031250029,0.1778000000000004,2.47961745,False,True
1114,Li47(NiO4)8,mp-850945,P1,2.675657662323291,0.037424041130270425,1.067,0.89211291,False,True
1115,Li4MnV(PO4)3,mp-768721,P1,2.8463429680725825,0.036120300238095204,1.2855999999999996,2.15567598,True,True
1116,Li3Fe2(SiO4)2,mp-758569,P2_1,3.026405584546937,0.05995701166667455,1.0869,2.15972019,False,True
1117,Li7Fe(O2F)2,mp-1367805,P1,2.4885109643294085,0.7261644932142914,0.007900000000000018,1.68863788,False,True
1118,Li10Co(SiO5)2,mp-1250597,P1,2.4093714928391683,0.05384597725543383,2.0015,2.79400902,False,True
1119,Li9Mn2Co5O16,mp-1175441,P-1,4.285979134893804,0.06015750000000075,0.5299,2.73445281,False,True
1120,Li6V3P8O29,mp-772239,Cc,2.5671746701741376,0.025634535715572504,1.4447,0.65124509,False,True
1121,Li6PBrO5,mp-1103940,F-43m,2.605044182754809,0.0,5.1094,0.4745161,True,True
1122,Li3MnPO5,mp-757770,Pna2_1,2.788143465483025,0.07534361425000125,2.2055000000000002,2.74361373,True,True
1123,Li6MnV3(PO4)6,mp-764740,P1,2.94048779994117,0.052506653515608015,0.2782,2.28790303,False,True
1124,Li4MnCo2O7,mp-1174561,P-1,4.048644788931124,0.13370939571428497,0.11790000000000012,2.54294876,False,True
1125,Li9Co7O16,mp-1175416,P-1,4.236699990318165,0.0887642478124997,0.4260999999999999,2.19466894,False,True
1126,Li4Fe2O5,mp-770893,P2_1/c,3.06562855099837,0.07417736965909416,1.6407000000000003,3.08676883,True,True
1127,Li2VO3F,mp-1373278,P1,3.087828696015025,2.8354796417857138,0.0,3.16592027,False,True
1128,Li8Mn3Cr(PO4)6,mp-768581,P1,2.850680938729656,0.026414150853179663,3.3873,1.99868466,True,True
1129,Li6CoOF6,mp-759438,I4/mmm,3.1055933539524077,0.02918582660714275,0.0,2.15517585,False,True
1130,Li7Mn2(CoO4)3,mp-1174963,P1,4.080217474158459,0.08613129333333358,0.887,3.27875455,False,True
1131,Li9Mn7O16,mp-1100486,C2/m,3.9228265399789497,0.04556898453124969,0.0,3.08018142,False,True
1132,Li5Mn2CoO8,mp-1173973,C2/m,3.93740635744669,0.046811903750000106,1.1378,2.37055571,False,True
1133,Li7Mn4CoO12,mp-1175270,C2,3.9627354572873856,0.05763897552083197,0.42749999999999977,2.84964876,False,True
1134,Li7Mn4CoO12,mp-1643277,P-1,3.988949087841715,0.03896419468749901,0.0,3.47124793,False,True
1135,Li3MnCoO5,mp-1174268,P1,3.9522706183987855,0.10043227299999025,0.0,2.45580087,False,True
1136,Li9Mn2Co5O16,mp-1176150,P1,4.121986128641263,0.12353752718750055,0.0,2.55983853,False,True
1137,Li4MnCo2O7,mp-1324966,P1,4.1471119854040674,1.8438160796428562,0.0,3.17698706,False,True
1138,Li2CrP2O7,mp-1366748,P-1,2.8164928951283783,2.00801763583336,0.0,2.84871639,False,True
1139,Li7W5O16,mp-771242,Cm,6.711745717247681,0.09876591874999985,1.0867999999999998,2.8103937,False,True
1140,Li2NiPCO7,mp-25396,P2_1/m,2.822345232655116,0.05386860317707054,0.0,0.88484861,False,True
1141,Li32Ti3Cr13O48,mp-1177743,P1,3.5250630764310027,0.018785676223960657,1.1293000000000002,2.10499718,False,True
1142,Li9Mn2Co5O16,mp-1175614,P-1,4.148262509396005,0.13595630312500084,0.0,2.53427672,False,True
1143,Li4Fe(PO3)6,mp-758649,P1,2.6355874994983015,0.05254614577584782,4.3787,1.27291509,False,True
1144,Li4V3P4O15,mp-773115,Pna2_1,2.9161124145455237,0.06362949084936087,2.1958999999999995,3.68540233,True,True
1145,Li9V6(P8O29)2,mp-779534,P1,2.5487534325709977,0.04529883967229065,0.2127,0.85581284,False,True
1146,Li3VO3F,mp-764860,P-1,3.169281864715627,0.06657432125000007,1.3617,2.43534935,False,True
1147,Li7Mn2(CoO4)3,mp-1175083,P1,4.030725973911399,0.12587958083333373,0.044700000000000184,2.63704779,False,True
1148,Li2AlVO4,mp-770522,Pna2_1,2.83056944120179,0.09229249218750013,2.5023999999999997,2.66338111,False,True
1149,Li4MnCo2O7,mp-1174706,P1,4.167063492012953,0.09900556285714135,0.0,2.7375126,False,True
1150,Li4V3P8O29,mp-1177222,P1,2.524838177161369,0.049392561401513824,0.6329,0.31658233,False,True
1151,Li7Mn4CoO12,mp-1175279,C2/m,3.9447388984884557,0.05697602427083215,0.0,2.94557268,False,True
1152,Li7Mn4(P2O7)4,mp-849679,P1,2.952017483686351,0.01633844526593009,0.15139999999999998,1.83121641,False,True
1153,Li8Co(O2F)2,mp-760331,Cmc2_1,2.410649828576539,0.08903199316666655,1.9402999999999997,0.42147324,True,True
1154,Li2CrPO4F,mp-759293,P2_1/c,3.070304211923668,0.026721204375006913,2.4355,5.66050256,True,True
1155,Li2MnO3,mp-1173951,C2/m,3.3601373421225915,0.29080388250000055,0.0,1.52906419,False,True
1156,Li9Mn2Co5O16,mp-1176250,P1,4.152735272673548,0.20317503406250026,0.0,2.92858335,False,True
1157,Li8Fe(O2F)2,mp-764500,P-1,2.4302103907288175,0.0752191609999997,3.0276,0.68550745,False,True
1158,Li2MnP2O7,mp-1177902,P-1,2.83360655869904,0.03317222874999892,4.1327,1.625065,False,True
1159,Li3Bi(BO3)2,mp-768809,P2_1/c,4.217000685325151,0.07574452916666452,2.9994,2.14335723,False,True
1160,Li7Mn2(CoO4)3,mp-1174855,P-1,4.078644339228732,0.06626371250000052,1.0645000000000002,2.2941146,False,True
1161,Li4MnCo2O7,mp-1174480,P-1,4.067971979265407,0.12583325249999877,0.14449999999999985,2.53236347,False,True
1162,Li5Mn3O8,mp-1174550,C2/m,3.793693734334117,0.06561845531249944,0.20199999999999996,3.14322669,False,True