,formula,mp-id,crystal system,density,energy above hull,band gap,efermi,is gap direct,theoretical
582,Li9Mn2Co5O16,mp-1100605,Pm,4.165980440075842,0.0871935428125008,1.0184000000000002,3.2414366,False,True
583,Li4WO5,mp-690542,I4,5.515655297838546,0.0,2.8401000000000005,1.32984402,False,True
584,Li7MnO5F,mp-753538,P1,2.6421649694294667,0.0962316260714271,1.2879,0.59036065,False,True
585,Li2MnO2F,mp-850216,C2/c,3.5027692618485005,0.09333961916666311,0.7454999999999998,2.07608518,False,True
586,Li9Mn2Co5O16,mp-1100690,P2/m,4.195519690145739,0.13666025000000026,0.0,2.65675563,False,True
587,Li9Mn2Co5O16,mp-1175854,P-1,4.126583756762009,0.13553962093750016,0.0,2.73885724,False,True
588,Li5V3P8O29,mp-1177046,P1,2.563884259629517,0.034322740203703184,1.2416999999999998,0.40601078,False,True
589,Li4Co3O7,mp-1174327,P-1,4.240605584944175,0.10179949249999787,0.30169999999999986,2.36345382,False,True
590,Li4Si2NiO7,mp-753715,P1,2.919146929988352,0.031636347857143754,2.9893,1.71286556,False,True
591,Li6La3Nb2O12,mp-778808,I2_13,5.180180944291887,0.0765082921467295,0.0,7.01898897,False,True
592,Li6Cr5O12,mp-781691,P2_1,3.7563262613415938,0.06956751855072696,0.0,2.2226081,False,True
593,Li3Co2(SiO4)2,mp-778490,Pc,3.002785367154043,0.10824020566666626,0.14669999999999983,1.46771901,False,True
594,Li6Co2OF11,mp-764088,P1,3.1513877909474424,0.07138165581249822,0.9789000000000001,-1.58398366,False,True
595,Li7Mn4CoO12,mp-1666320,P-1,3.966151714565735,0.04154768572916545,0.7932999999999999,2.79919424,False,True
596,Li9Mn2Co5O16,mp-1176090,P1,4.127566402265342,0.12492848687500047,0.0996999999999999,2.66333729,False,True
597,Li4AlCr3O8,mp-1330351,P-1,3.916167471838582,1.0735784529687429,1.2805999999999997,4.36311726,False,True
598,Li3V2P5O16,mp-25811,P2/c,2.7317940356013795,0.035266063094180566,2.4835000000000003,3.47059269,False,True
599,Li7Mn2(CoO4)3,mp-1979194,C2,4.1101601843301205,0.1172744733333344,0.0,2.77815261,False,True
600,Li9Mn2Co5O16,mp-1176222,P1,4.17530421703013,0.09696557000000006,0.0,2.22540344,False,True
601,Li2AlCoO4,mp-770550,Pnma,3.065622568510343,0.08639680062499977,1.6962000000000002,1.08560384,False,True
602,Li4V3P8O29,mp-1177191,P1,2.498498504236362,0.05050568378787723,1.04,-0.00107561,True,True
603,Li5Mn4(P2O7)4,mp-1177149,P1,2.9815608922016454,0.03729560438890189,0.2669999999999999,1.86735128,True,True
604,Li7Co(O2F)2,mp-861786,P1,2.542623716792179,1.2522021014285682,0.2553000000000001,1.28485288,False,True
605,Li32Ti3Cr13O48,mp-776969,P1,3.5255474808560017,0.01845469570312641,1.1043000000000003,2.14541273,False,True
606,Li3V2(PO4)3,mp-756749,Ia-3d,3.2689351372356574,0.04662196137502761,0.0,4.1904448,False,True
607,Li2VO2F,mp-777778,C2,3.4954268216713933,0.0661594920833295,1.7347000000000001,3.08180859,False,True
608,Li2FeO2F,mp-754677,Cc,3.518019129642411,0.10012603791666574,1.6678,1.71270799,False,True
609,Li9Mn2Co5O16,mp-1175453,P-1,4.231244570876642,0.05963715218750032,0.8360999999999996,3.35688669,False,True
610,Li2NiO2,mp-754756,R-3m,3.3171840128997103,0.080981324999998,1.938,1.65201265,True,True
611,Li3MnV(PO4)3,mp-768561,P1,2.8122513013497734,0.03645346193749788,0.8614999999999999,1.4194371,False,True
612,Li2VO2F,mp-763174,Cm,3.344014975434207,0.09768823333332932,1.5641999999999996,2.44843197,False,True
613,Li3NiO3,mp-773516,P4_2/mnm,3.030585174811293,0.02329273761905082,0.9276,0.80282852,False,True
614,Li4MnCo2O7,mp-1174568,P-1,4.105252661874097,0.17171050857142678,0.0,2.98536326,False,True
615,Li2VO2F,mp-763205,Pm,3.3162741480145383,0.11214254916666277,1.3484000000000003,3.00143684,False,True
616,Li10Co4O9,mp-1185179,P4_2/nmc,3.5478768890061603,0.03057954925271744,1.4774000000000003,2.19182519,True,True
617,Li6Cu(B2O5)2,mp-556002,P1,2.48921434168321,0.04237176833333578,3.1221,1.58302447,False,True
618,Li9Nb3P8O29,mp-778150,P-3c1,2.84563096690198,0.10843710461188216,0.1548999999999996,4.02194672,False,True
619,Li3V2(O2F)2,mp-764397,P2_1/m,3.3174192210662423,0.06570489943180657,0.6665000000000001,1.79254635,False,True
620,Li2SiNiO4,mp-766582,P2_1/c,3.1819230439018455,0.0400352221875,2.9164000000000003,1.65515282,True,True
621,Li2VO2F,mp-780295,C2/m,3.4610085508143493,0.05004069583332882,1.5210000000000004,3.1443243,False,True
622,Li2CoO3,mp-1290895,P1,3.8554738640505763,0.06673388333333374,0.02619999999999978,2.30832254,False,True
623,Li6CrCo3(PO4)6,mp-766501,P1,3.064002769381717,0.0723868611093712,0.4438,1.42947177,True,True
624,Li9Mn2Co5O16,mp-1176003,P1,4.160912293915851,0.09221872437500078,0.18400000000000016,2.7783195,False,True
625,Li2Fe(PO4)2,mp-697816,P2_1,2.986689284061784,0.08402792668269043,0.0,1.08286192,False,True
626,Li5Mn4(P2O7)4,mp-1177173,P1,2.973784882980793,0.04208534883334725,0.19090000000000007,1.73512302,False,True
627,Li9Mn7O16,mp-1100557,P-1,3.892233778177931,0.02498437734374992,0.8778999999999999,2.79125409,False,True
628,Li6V3P8O29,mp-1176914,P1,2.5913583065477157,0.019679338541659597,1.4555999999999998,0.55825644,False,True
629,Li3Ti(BO3)2,mp-770194,P2_1/c,2.6744448151652547,0.0761537858493595,0.1673,5.08112912,False,True
630,Li7Mn2(CoO4)3,mp-1175025,P1,4.0549233705954695,0.06991413041666661,0.6048999999999998,2.97130811,True,True
631,Li6V3P8O29,mp-1176925,P1,2.553127250664306,0.022875327019920455,1.4459,0.4751845,False,True
632,Li4MnCo2O7,mp-1174823,Cm,4.100226314796836,0.08889534142856981,0.0,2.71309243,False,True
633,Li7Mn2(CoO4)3,mp-1175056,P1,4.061400087961902,0.10425397291666716,0.16749999999999998,2.56963582,False,True
634,Li4MnCo2O7,mp-1174644,P1,4.165793969799826,0.07611208321428453,0.5350000000000001,3.00933569,False,True
635,Li3V(PO4)2,mp-758425,P1,2.681096318906391,0.08018132339283124,2.2363,1.64289119,False,True
636,Li8FeCo3O8,mp-752780,P1,3.337298487484968,0.0981258083437524,1.6028999999999998,1.67423301,False,True
637,Li3Mn(OF)2,mp-765992,Cc,3.2587412741627952,0.096913516249999,1.2378,1.7556798,False,True
638,Li4MnCo2O7,mp-1174749,P1,4.110255758882993,0.1134865724999985,0.24079999999999968,2.95749366,False,True
639,Li3Bi(PO4)2,mp-850185,P2_1/m,4.072558360036726,0.09933459071428619,3.8292,1.81628569,False,True
640,Li2Cu(PO3)3,mp-780731,P2_12_12_1,2.9783211170872703,0.10625260941667314,1.1081000000000003,4.63349368,False,True
641,Li7Co5O12,mp-1174342,C2/m,4.129110066291136,0.10045809624999791,0.0,2.33031604,False,True
642,Li3MnCoO5,mp-1174178,P1,3.921044917670899,0.08323907049998969,0.6595,3.18336867,False,True
643,Li2P2PdO7,mp-616572,Imma,3.2350756556391826,0.00786886861110947,1.0586,1.79731779,False,True
644,Li3Mn(PO4)2,mp-31972,P2_1/c,3.080506129985667,0.028218765000050716,0.7314000000000003,2.09343439,False,True
645,Li9Cr4(BO3)8,mp-759279,P1,2.6350864265618217,0.0840774773703501,0.5138,0.67901095,False,True
646,Li2V(PO4)2,mp-32525,P2_1/c,2.8559266680911164,0.04096303525640188,2.3819999999999997,4.26204573,False,True
647,Li3FeOF4,mp-754295,Cm,2.9800775020589083,0.06600566919752993,1.9515,-0.37105804,False,True
648,Li4MnCo2O7,mp-1174455,P-1,4.191295215409709,0.12398438714285565,0.2524000000000002,2.76145902,True,True
649,Li3FeO3,mp-770885,P2_1/c,2.779202037913432,0.06872726160714482,2.1721,0.72605334,False,True
650,Li9Mn2Co5O16,mp-1175835,P-1,4.110584095984999,0.12090746125000074,0.0484,2.63605314,False,True
651,Li8(FeO2)5,mp-1638858,P1,3.1307731820357816,0.09967916532608534,0.13139999999999996,1.74537112,False,True
652,Li9Mn2Co5O16,mp-1175683,P-1,4.188656600500306,0.09840853656250026,0.0,2.9155385,False,True
653,Li9Mn2Co5O16,mp-1176188,P1,4.1654173467647215,0.0881813759375003,0.5118,2.84161166,False,True
654,Li6V3P8O29,mp-1176935,P1,2.5641914886544788,0.021354447346007,1.1969,0.62128799,False,True
655,Li6MnCo3(PO4)6,mp-759177,P1,3.0534731390058982,0.0972326909062442,0.4883000000000002,1.25288385,False,True
656,Li6Mn3V(PO4)6,mp-1177033,P1,2.9576024870775792,0.028113709000006537,0.0,2.33544508,False,True
657,Li4VAs2O9,mp-1177164,P4/ncc,3.1617158026196246,0.04391137656249988,2.9741,0.79496061,True,True
658,Li4V2C4SO16,mp-776347,Fddd,2.5068747495311956,0.066429719722227,0.8724000000000001,0.93003229,True,True
659,Li3FeO3,mp-770886,Pnma,2.8264002207078827,0.045708424107144374,1.6343,0.82511524,True,True
660,Li3Cu(PO4)2,mp-26794,Pc,2.6735929560693004,0.05597791080357162,0.0,0.19892746,False,True
661,Li2Fe(PO3)4,mp-31817,C2/c,2.6148918676736304,0.025302146798256153,3.9524,1.58649564,True,True
662,Li7Mn4CoO12,mp-1175158,P-1,4.014088495496333,0.0342753859374989,0.9223999999999997,3.57396288,False,True
663,Li9Mn2Co5O16,mp-1176316,C2/m,4.1675142017130185,0.0915305178125001,0.0,2.87050408,False,True
664,Li3Mn2O4,mp-691164,C2/c,3.802427717171241,0.18433706629629665,0.09489999999999998,3.49779794,False,True
665,Li7Mn4CoO12,mp-1175170,P-1,3.968615107776761,0.0578208863541656,0.0,2.7082265,False,True
666,Li9Y(NiO4)2,mp-776467,Pnma,3.2475465747865377,0.0876499413749956,2.3789000000000002,3.96114393,True,True
667,Li3AlCrO5,mp-770586,Pna2_1,2.7600371508768373,0.05017356175000298,1.7516999999999998,1.87400195,False,True
668,Na3Li3Mn2P2(CO7)2,mp-771021,P1,2.7635912974753474,0.023688817499997405,3.5219,2.00694433,False,True
669,Li2MnO3,mp-1173926,C2/m,3.6818775955660903,0.060892491666667325,1.0030000000000001,2.51431409,False,True
670,Li3Al2VO6,mp-756574,P-1,3.0140569970420965,0.06667593333333333,1.9332000000000003,3.62126505,False,True
671,Li3Co2Si3O10,mp-1177711,P1,3.015578823275379,0.06649470527778512,0.0,1.84754986,False,True
672,Li3MnSi2O7,mp-780126,P2_1,2.8901518175430967,0.05786823888541104,0.9668000000000001,2.15449555,False,True
673,Li7Fe5OF15,mp-850023,P1,2.5199897757602168,0.17603515857142948,2.4189,-1.00606182,False,True
674,Li6Mn(OF)3,mp-766020,P1,2.306285166301027,0.09022747769230754,2.1,-0.25865408,True,True
675,Li7Mn4CoO12,mp-1175191,P-1,3.996254816682857,0.06203488427083137,0.0,2.88144521,False,True
676,Li3V(CO3)3,mp-758041,Ama2,2.348600399180341,0.047959169374997224,2.6147,0.59825668,True,True
677,Li2CrO3,mp-764409,Pnna,3.657395795409382,0.1019897379166661,0.23260000000000014,3.04748769,False,True
678,Li3MnP2(O3F2)2,mp-1199210,P2_1/c,2.7375184408200197,0.0,1.7453,0.15180736,False,True
679,Li3MnV(PO4)3,mp-768834,P-1,2.765067069714165,0.05219557343749681,0.0,1.221997,False,True
680,Li6MnV3(PO4)6,mp-1177022,P1,2.8527393565796424,0.04002226326560798,0.43699999999999983,1.88709061,False,True
681,Li9Mn2Co5O16,mp-1176234,P1,4.169601661728279,0.16300429093750068,0.0,2.67512921,False,True
682,Li2MnH4(SO5)2,mp-772273,P-1,2.489082788837614,0.0568335934210511,4.0045,1.11049754,True,True
683,Li9Mn2Co5O16,mp-1176021,P1,4.170822385295402,0.0894258562500001,0.5108999999999999,3.19845504,False,True
684,Li2VPO5,mp-780725,Pmn2_1,3.200934615185938,0.07631801189815857,0.8682000000000003,3.81212304,False,True
685,Li3Co2(PO4)3,mp-773159,C2,3.1195342192786617,0.08094543390624498,0.7849000000000002,1.47535315,True,True
686,Li3V2(CO3)4,mp-1644899,P1,2.568774488124927,0.0712401026636913,0.4979,2.34425103,False,True
687,Li9Mn2Co5O16,mp-1175662,C2,4.21290374237522,0.10589713093750053,0.039699999999999847,2.55393855,False,True
688,Li7Mn2(CoO4)3,mp-1175108,Pm,4.048481362773505,0.1033644387499999,0.0,2.51755388,False,True
689,Li2VSi7O16,mp-757841,P1,2.4620448026226245,0.0783211470672871,1.2348,4.29285545,False,True
690,Li3SbO3,mp-756935,I-43m,4.047402273070421,0.009161866428569532,2.8939999999999997,2.48715345,False,True
691,Li9Mn2Co5O16,mp-1100692,Cm,4.1573305977059585,0.11111698687500038,0.0,3.07009814,False,True
692,Li15(NiO2)14,mp-705910,Cm,4.568761284994473,0.041063713479529085,0.0,3.26607739,False,True
693,Li9Co7O16,mp-1175488,P-1,4.333416502142528,0.04743776374999964,0.2827000000000002,2.29075198,False,True
694,Li3FeSiBO7,mp-771289,P2_1/m,2.7834685807674315,0.07817719626282482,0.0,1.0119708,False,True
695,Li6V3P8O29,mp-772675,P1,2.575204002559008,0.019354428759051245,1.1502,0.7759201,False,True
696,Li7Mn2(CoO4)3,mp-1175078,P1,4.1158116897158745,0.09278653000000059,0.5476000000000001,3.29705148,False,True
697,Li2MnP4(H4O5)4,mp-759299,P2_1/c,2.1048398662275485,0.015288130348836582,4.1836,0.72940616,True,True
698,Li3Sb2P5O18,mp-723939,P1,3.32618046215098,3.6320424981250006,0.0,3.54694386,False,True
699,Li4V3O8,mp-1177246,R-3m,3.3709815082037955,0.07551873758334082,1.3013999999999997,2.11279577,False,True
700,Li7Mn4CoO12,mp-1651930,P1,3.9527422807114876,0.06287091052083227,0.1593,3.14509054,False,True
701,Li6MnFeP2(CO7)2,mp-757146,Pm,2.7406649471853437,0.04566501596153927,3.6201000000000003,2.19567914,False,True
702,Li3Cr(PO4)2,mp-31746,P2_1,2.603465424870286,0.07331627767856741,1.9816000000000003,0.75683015,True,True
703,Li9Mn2Co5O16,mp-1176205,P1,4.151225737270864,0.10641184687500083,0.0,2.97692167,False,True
704,Li9Mn2Co5O16,mp-1100734,P2/m,4.251990400039214,0.06868139250000027,0.16310000000000002,2.81920387,False,True
705,Li7Mn2(CoO4)3,mp-1174576,P-1,4.081937179951627,0.07019448958333374,1.2052,3.55066575,False,True
706,Li3Ti2(PO4)3,mp-1177523,P2/c,2.844673121393851,0.09405430848332852,0.015600000000000058,4.82817191,False,True
707,Li10Sn(PO6)2,mp-721238,P1,2.6000433952831483,0.09935146113333548,3.2725999999999997,0.74225157,False,True
708,Li7V4O11F,mp-764844,P1,3.469535388327308,0.07281284744565664,1.1078999999999999,3.65439417,False,True
709,Li9Mn2Co5O16,mp-1100737,P2/m,4.247762690984005,0.07178936562500038,0.35329999999999995,3.12767134,False,True
710,Li3Mn2(SiO4)2,mp-753965,P1,2.9712793794525734,0.08917419836110074,0.0,1.85111461,False,True
711,Li7Mn2(CoO4)3,mp-1174700,P1,4.087441854585692,0.08229300666666717,0.9017,3.44725194,False,True
712,Li2VO2F,mp-881153,Cm,3.3262984081269806,0.10566408874999667,1.1311000000000004,2.89315135,False,True
713,Li3Sc2(PO4)3,mp-774742,P2_1/c,2.64894993302108,0.0010613127500009867,4.3142000000000005,0.85416016,True,True
714,Li4MnP2O9,mp-757635,C2/m,2.833745366388693,0.019047088593750594,1.4716000000000002,1.19064176,False,True
715,Li2VO2F,mp-762922,Cm,3.3363851935918305,0.09346494874999589,1.3341999999999996,2.50805545,False,True
716,Li3MnO3,mp-770556,P321,3.138012855015964,0.07037183226190713,0.7440999999999998,1.92586203,False,True
717,Li7(CoO3)2,mp-849462,P-4n2,3.0445350891929266,0.12267127649999843,0.0,1.99288507,False,True
718,Li2FeSiO5,mp-758787,Pmc2_1,3.1246568472903413,0.11839086342592164,0.0,1.42901169,False,True
719,Li3V2(PO4)3,mp-759065,P2_12_12,2.864632141769338,0.004271954500026709,1.8559,1.91297682,True,True
720,Li2Fe(PO4)2,mp-757351,Pbca,2.9692860384167896,0.049882635817306564,0.0,0.86154179,False,True
721,Li7Mn2(CoO4)3,mp-1174932,P1,4.123858803581489,0.06721170833333456,0.8145000000000002,3.35299666,False,True
722,Li4MnH6(S2O9)2,mp-777769,Pccn,2.206355840429748,0.06277546124999578,4.412,0.36431413,True,True
723,Li9Mn2Co5O16,mp-1175888,P1,4.2539812096246425,0.06779577500000045,1.1177000000000001,2.41765771,False,True
724,Li2FeSiO4,mp-758465,P2_1/c,3.0657931821120394,0.02272471468750048,3.1414999999999997,1.92478846,False,True
725,Li9Mn2Co5O16,mp-1175970,P1,4.226564366111912,0.08606436187500055,0.5366999999999997,3.21117844,False,True
726,Li2Mn(Si2O5)2,mp-849321,P2_1/c,2.3101837468961857,0.06905421264705947,3.4758999999999993,0.94262238,True,True
727,Li7Mn5O12,mp-1175326,P-1,3.8684434328399684,0.04014736104166694,0.8637999999999999,2.6014551,False,True
728,Li4MnCo2O7,mp-1174793,Cm,4.096702931702404,0.09895643642857,0.0,2.86993038,False,True
729,Li24MnCr11O36,mp-770985,P1,3.58246700615226,0.026803644305555707,0.9977,2.14180274,False,True
730,Li7Mn2(CoO4)3,mp-1174851,P-1,4.044505193069812,0.26488707375000065,0.0,2.0964084,False,True
731,Li9Mn7O16,mp-1100481,P2/m,3.9384186868660676,0.025579975156249546,0.8933,3.71948731,False,True
732,Li4Mn(PO4)2,mp-761573,P-1,2.7932488943888383,0.05544934249999489,3.7795,2.05662564,False,True
733,Li2MnO2F,mp-753359,P1,3.536813477721179,0.0908104579166622,1.0974,2.10980093,False,True
734,Li3FeB8O15,mp-776601,P2_1/c,2.1069805261276917,0.06372914981481426,3.1956999999999995,-0.75682279,False,True
735,Li4MnCo2O7,mp-1174389,P-1,4.1706309447173195,0.077686090714284,0.7715000000000001,2.60471748,False,True
736,Li9Mn7(PO4)12,mp-778041,P1,2.9392131982309495,0.0341138653289601,0.0,1.03574592,False,True
737,Li7Mn2(CoO4)3,mp-1174525,C2/m,4.07465029369867,0.14172692041666668,0.0,2.64202779,False,True
738,Li5V3P8O29,mp-1177086,P1,2.559241113518296,0.03362825164814787,1.1703000000000001,0.43475992,False,True
739,Li3Al(FeO3)2,mp-1177725,P-1,3.391857133010082,0.042877093958335166,2.1557000000000004,1.97486091,False,True
740,Li32Ti13Cr3O48,mp-776967,P1,3.3856767956400065,0.007189554505207418,1.2869000000000002,2.08788756,False,True
741,Li3MnV(PO4)3,mp-1177599,P1,2.9452396892016113,0.06633664356249724,0.3268000000000004,2.08257586,False,True
742,Li3VO12,mp-1106342,P1,2.065256773339657,0.47492508562499935,0.09969999999999996,-0.3995455,False,True
743,Li8V3P8O29,mp-757283,Cc,2.585330406714734,0.012632382708279266,1.2925000000000002,1.47205654,False,True
744,Li9Mn2Co5O16,mp-1175953,P1,4.237602295078532,0.08431187093750037,0.4237000000000002,2.85371298,False,True
745,Li7V3P8O29,mp-757689,P1,2.6396502408379314,0.02612666460549473,0.0030999999999998806,1.87461062,False,True
746,Li4MnCo2O7,mp-1174786,C2,4.249393340117565,0.05150064499999907,0.9939999999999998,2.60433414,False,True
747,Li9Mn2Co5O16,mp-1100693,P2/m,4.07832135850901,0.1278496553125006,0.0,2.73325232,False,True
748,Li4MnCo2O7,mp-1174579,C2/m,4.070236316740555,0.10626148464285645,0.0,3.009135,False,True
749,Li9Co7O16,mp-1175405,P-1,4.3944761243854495,0.047559657812500156,0.005300000000000082,2.498972,False,True
750,Li9Mn2Co5O16,mp-1100754,Pm,4.1635577533965815,0.11920931968750015,0.0,2.7104822,False,True
751,Li2MnO3,mp-1173930,P-1,3.6898944161019718,0.06166037583333406,0.9367000000000001,3.33707125,False,True
752,Li2FeSi3O8,mp-1347683,P1,2.5065160019056174,2.489943017321427,0.06440000000000001,2.39645338,False,True
753,Li9Mn2Co5O16,mp-1373887,P1,4.2100531646530275,1.2599510984375009,0.005799999999999805,3.48893396,False,True
754,Li9Co7O16,mp-1175476,P-1,4.2305666402197755,0.09218154843749993,0.35809999999999986,2.13804262,False,True
755,Li5Mn(CoO4)2,mp-1174310,R-3m,3.7641824832959054,0.22429421656249726,0.0,1.78034597,False,True
756,Li6V3P8O29,mp-1176917,P1,2.567445358597322,0.02228358180252954,1.0851,0.74833729,False,True
757,Li4MnCo2O7,mp-1174678,P1,4.177339564250903,0.18851864678571317,0.08360000000000012,2.49935949,False,True
758,Li5TaO5,mp-770469,C2/c,4.153325889236779,0.02765102681818199,4.0502,0.23065967,False,True
759,Li5Mn4(P2O7)4,mp-1177157,P1,2.985082037772335,0.04200761516667928,0.01760000000000006,1.6163789,False,True
760,Li4MnCo2O7,mp-1174594,P1,4.137129788601537,0.08168083571428397,0.5468999999999999,3.03565746,False,True
761,Li2Fe(PO3)4,mp-758609,P2_1/c,2.4496290130455733,0.04678192258772995,4.83,0.9363436,False,True
762,Li7Co5O12,mp-1666632,P1,4.211393475561372,0.0697937547916645,0.238,2.13546226,True,True
763,Li9Mn2Co5O16,mp-1175408,P-1,4.212277285327491,0.07051191375000077,0.5548000000000002,2.49761867,True,True
764,Li3Mn(PO4)2,mp-754753,P2_1/m,3.0438668367078137,0.019811321785764058,0.28300000000000036,2.24310628,False,True
765,Li7Mn4CoO12,mp-1175245,P1,3.965024127270967,0.043208933437498764,0.5,3.41581776,False,True
766,Li5CoO4,mp-760147,Pbca,2.688994067161481,0.014425184499997634,1.6006000000000002,0.58541514,True,True
767,Li6Zr2O7,mp-5418,C2/c,3.5851063486106884,0.0,3.8369999999999997,0.65925756,False,True
768,Li2SeO4,mp-1181354,P1,2.341400186968839,0.4628773549999998,0.0,-1.00202789,False,True
769,Li2P5WO15,mp-756677,Cc,3.3197066371246056,0.06458341333333184,3.931,1.61915128,True,True
770,Li5Cr(CO3)4,mp-1177153,P2_1/c,2.4342526876533093,0.06426086693181698,2.0518,0.84077564,False,True
771,Li3V(BO3)2,mp-778031,P-1,2.4186396230789264,0.05175208750000415,2.7524,0.78152465,False,True
772,Li3CrPCO7,mp-766698,P2_1/c,2.7451724089832745,0.08670244502404056,2.191,4.76447075,False,True
773,Li32Ti13Cr3O48,mp-777376,P1,3.3862587244872553,0.007348450338541035,1.3658000000000001,2.0850781,False,True
774,Li3MnCoO5,mp-1174226,Cm,3.983013498116719,0.10550928349998934,0.0,2.53763163,False,True