,formula,mp-id,crystal system,density,energy above hull,band gap,efermi,is gap direct,theoretical
3863,Li7Mn4CoO12,mp-1645043,P-1,3.9886801775231846,0.03153737697916448,0.6177000000000001,3.50436682,False,True
3864,Li2FePHO5,mp-756776,P-1,2.982951550380564,0.05987696562499689,3.8225,2.0024387,False,True
3865,Li3Co2(SiO4)2,mp-759510,C2,3.054944881511023,0.058125885333332405,0.0,1.66229318,False,True
3866,Li3MnV(PO4)3,mp-779367,P1,2.928363854132352,0.07575678968749688,0.44619999999999993,2.12392067,False,True
3867,Li4Bi2O5,mp-756718,P-1,5.7620115314364275,0.031186527272728526,2.6845999999999997,2.06220709,False,True
3868,Li2BiBO4,mp-768292,Pnma,5.788235808826541,0.09044884614583282,2.3079,3.6870646,False,True
3869,Li2VOF4,mp-761271,P1,2.9215382576917404,0.017227378749999467,2.0956,-0.27872499,False,True
3870,Li2Si3NiO8,mp-766692,P4_332,3.786226452299591,0.08373611089285316,4.144300000000001,4.41874935,False,True
3871,Li2MnPO4F,mp-776483,P1,3.0074295018295483,0.07046172666666539,3.3419999999999996,1.80846174,True,True
3872,Li7Mn2(CoO4)3,mp-1175063,P1,4.058712977825705,0.08413461625000096,1.1243000000000003,3.37804443,False,True
3873,Li6Ti(BO3)3,mp-769458,P2_1/c,2.440686122701448,0.09610118918421051,0.025700000000000056,3.68187658,False,True
3874,Li3Bi2(PO4)3,mp-27069,P2_1/c,4.448262798177532,0.03766992499999944,3.7569999999999997,1.77320245,False,True
3875,Li4V3P8O29,mp-775383,P1,2.548598051035428,0.04813592765151409,1.1248,0.20170071,False,True
3876,Li6NbNi3(PO4)6,mp-1176954,P1,3.0311644823163806,0.07762955443229025,0.0,1.06196269,False,True
3877,Li9Mn7O16,mp-1100517,P-1,3.9177426056822666,0.02996666453124952,0.6463999999999999,2.97842551,False,True
3878,Li3Sb2(PO4)3,mp-759227,C2/c,3.5939687757827614,0.07035719475001212,3.371,2.80604691,False,True
3879,Li2CoSiO4,mp-561743,Pna2_1,3.204747284109712,0.00011448906249356128,0.43310000000000004,3.43128438,False,True
3880,Li32Mn3Cr13O48,mp-777842,P1,3.5954268209214626,0.027815786250000585,0.8376999999999999,2.26144499,False,True
3881,Li2Fe(PO3)5,mp-758494,Pc,2.4155538730578066,0.05295031626811575,1.3418999999999999,0.47948225,False,True
3882,Li9Mn2Co5O16,mp-1100760,Cm,4.163817971997105,0.08997077375000018,0.0,2.57256562,False,True
3883,Li3Co2P5O16,mp-26203,P2/c,2.8624646756629124,0.01753583939103276,3.2819999999999996,1.30461034,False,True
3884,Li6Ca12W4N16O3,mp-15203,I-43d,4.446524108580336,0.03334197000717776,2.6113999999999997,2.71176615,False,True
3885,Li9Mn2Co5O16,mp-1100598,Pm,4.151249903080723,0.10852810437500082,0.0,2.69990118,False,True
3886,Li5V3P8O29,mp-1177073,P1,2.523334075482572,0.03478629998148097,0.9833000000000001,0.36276229,False,True
3887,Li2FeSi4O11,mp-759034,C2/c,2.787917202227985,0.09218037532407664,0.0,1.48003046,False,True
3888,Li9Mn2Co5O16,mp-1100597,Pm,4.133277304829526,0.1273668184375003,0.0,2.77269611,False,True
3889,Li2MnO2F,mp-1292668,C2,3.594922285098567,0.09244188583332846,0.9823999999999999,1.67254447,False,True
3890,Li4MnCo2O7,mp-1174481,P-1,4.087755301012526,0.1261145674999984,0.07750000000000012,2.75863584,False,True
3891,CsLi5Mn(P2O7)2,mp-1195536,Pbcn,2.8780444550815214,0.0,3.959,1.4608321,False,True
3892,Li2MnO2F,mp-753685,P-3m1,3.5651949266928034,0.07127962166666268,0.0,2.91541946,False,True
3893,Li4CoTeO6,mp-1222462,C2,4.432092933008556,0.0,2.3692,3.32636705,False,True
3894,Li7Mn2(CoO4)3,mp-1174502,C2/m,4.080019012410365,0.1484410395833331,1.6012999999999997,2.11498904,False,True
3895,Li5V3P8O29,mp-773479,P1,2.576310755195455,0.036822230092592,1.1005,0.51522159,False,True
3896,Li9Mn2Co5O16,mp-1175836,P-1,4.234007337074059,0.07955676656250077,0.8054000000000001,3.42056037,False,True
3897,Li6Mn3CoO10,mp-1174280,Cm,3.9155843809527036,0.08574102787499704,0.6208,3.36033448,False,True
3898,Li3Ni2(CO3)4,mp-765316,P1,2.4376059567292505,0.0941995188392859,0.0,-0.3345641,False,True
3899,Li2TiPO4F,mp-25401,P1,2.942342744163733,0.2694014694074047,0.009700000000000486,5.67951532,False,True
3900,Li2MnO2F,mp-802184,P-1,3.4917459147620775,2.796577289999995,0.0,3.47229278,False,True
3901,Li9Mn2Co5O16,mp-1175601,P-1,4.189472226378484,0.07664542781250017,0.03390000000000004,2.72803258,False,True
3902,Li6Nd6Sb(TeO8)3,mp-532789,C2/c,5.772949013205856,0.010593549508330469,0.0,2.29972749,True,True
3903,Cs2Li3GaO4,mp-555140,Ibam,4.50538111582987,0.0,3.808,1.09919897,False,True
3904,Li3Sb2(PO4)3,mp-758812,P2/c,3.613502871343894,0.07535730575001143,2.7375999999999996,3.1583766,False,True
3905,Li2BiO2,mp-755691,Immm,6.350063435156528,0.07268717366666788,0.0,4.214053,False,True
3906,Li4Fe(BO3)2,mp-756503,Pnnm,2.7205470504573155,0.019616981730775862,3.7795000000000005,1.15544383,False,True
3907,Li2FeO3,mp-774155,C2,3.6288091331455052,0.0,0.0965999999999998,1.97209009,False,True
3908,Li7Mn2(CoO4)3,mp-1175032,P1,4.039197691119962,0.11034902541666725,0.0,2.69042357,False,True
3909,Li7TiCr3(PO4)6,mp-850412,R3,2.792572592304839,0.0843110749825664,0.0,4.19852165,False,True
3910,Li4Co3P4(H3O4)6,mp-778187,P2_1/c,2.4971109114492798,0.05053317886792463,2.9627,0.8930311,False,True
3911,Li2VP2HO8,mp-780736,P-1,2.6907232148085387,0.04107439912456634,2.1345,1.28747952,False,True
3912,Li2SiNiO4,mp-766711,Pca2_1,3.2310656378502185,0.09028471624999934,3.0102,1.99815677,False,True
3913,Li13Mn2O12,mp-752819,P1,2.575759482901088,0.10650848055555606,0.0,0.18032975,False,True
3914,Li5Mn4(P2O7)4,mp-1177416,P1,2.995766651829339,0.044977036388901936,0.17849999999999988,1.53599643,False,True
3915,Li6V3P8O29,mp-1176921,P1,2.585179541105681,0.02856569136774567,0.0,1.55499411,False,True
3916,Li5CoO4,mp-754280,Aea2,2.801597757999725,0.016994171499997712,1.0993,0.52375549,False,True
3917,Li7Mn4CoO12,mp-1175268,C2/m,3.980716213759359,0.030722637395831143,0.6895000000000002,2.77953081,False,True
3918,Li5V3Cu(PO4)4,mp-760808,Cm,3.3113858992498644,0.10248569318966361,1.4693000000000005,4.92841408,True,True
3919,Li4Co2OF7,mp-1311449,Pc,3.237459367184062,0.03539988821428519,1.4085999999999999,-0.35705088,False,True
3920,Li9Mn2Co5O16,mp-1176195,P1,4.179651171539534,0.10414293593750035,0.26160000000000005,2.6755948,False,True
3921,Li9Mn2Co5O16,mp-1100566,Pm,4.169823602791367,0.12069510031250008,0.0,2.60931377,False,True
3922,Li4V3P8O29,mp-765412,P1,2.5184732874940456,0.045475774469695196,0.4864,0.45001439,False,True
3923,Li7Mn4CoO12,mp-1175280,C2/m,3.9396255635918185,0.05838240156249874,0.0,3.23499762,False,True
3924,Li6Bi5O14,mp-769010,Cmc2_1,6.0907285567445975,0.08397415782499973,0.0,2.54523857,False,True
3925,Li6Ni5(P2O7)4,mp-705432,P-1,3.2618706285748273,0.0383320590070948,3.4812,1.94397526,True,True
3926,Li4Fe3(OF3)2,mp-752847,P-1,3.545551582761609,0.0714814446666665,3.2956,0.96087588,False,True
3927,Li2MnPHO5,mp-776954,P-1,2.8918849614362023,0.05733769525000554,3.2607000000000004,2.26044525,False,True
3928,Li6MnV3(PO4)6,mp-778389,P-1,3.1459739708057604,0.05207892626560895,0.24340000000000028,2.65559489,False,True
3929,Li4CrP2O9,mp-26911,C2/m,2.731811143668396,0.04206077799106289,0.17589999999999995,1.33483628,False,True
3930,Li2Co(Si2O5)2,mp-757887,P2_1/c,2.4290978137200265,0.0747332848529414,3.2401,1.25579518,False,True
3931,Li7Mn5O12,mp-1651187,P-1,3.864072295761012,0.029848177083334093,0.9919000000000002,2.67710488,False,True
3932,Li5Mn2P2(CO7)2,mp-769300,P-1,2.7129749113257455,0.043169156099999384,0.3433999999999997,1.67060981,False,True
3933,Li9Mn2Co5O16,mp-1176079,P1,4.107672514549443,0.13314357500000007,0.0,2.45308163,False,True
3934,Li9Mn7O16,mp-1100542,P-1,3.9123526696089175,0.034973567656249926,0.0,3.04648552,False,True
3935,Li2SnO3,mp-3540,C2/c,5.046885843499877,0.0,3.1283000000000003,3.21578022,False,True
3936,Li2Fe(PO3)4,mp-26125,Pnma,2.8335166665086007,0.00933456837720481,4.1899999999999995,2.20248914,False,True
3937,Li2YPCO7,mp-768220,P2_1/m,2.8202578156041525,0.09500366041667885,4.8307,0.74020443,True,True
3938,Li2FeP2O7,mp-756604,P-42_1m,2.5965123519422915,0.07648683576385817,3.6667999999999994,1.40320005,False,True
3939,Li9Mn2Co5O16,mp-1176136,P1,4.191764605096187,0.08311866093750009,0.6696,3.28458942,False,True
3940,Li2VOF4,mp-764837,P1,2.4679520549847385,0.06907970656249951,2.4813,-1.03467929,False,True
3941,Li7Mn4CoO12,mp-1645663,P-1,3.950051858890768,0.06231272322916581,0.0,2.77164851,False,True
3942,Li2CrPCO7,mp-776285,P2_1,2.722567294781191,0.012863353020831525,2.6729,0.85155894,False,True
3943,Li9Mn2Co5O16,mp-1175391,P-1,4.264978765963493,0.07396272375000024,0.8338000000000001,2.72145956,False,True
3944,Li4V(CO3)4,mp-759521,P1,2.3043560325197414,0.06289632726190586,1.2907,0.41025685,False,True
3945,Li9Mn2Co5O16,mp-1175421,P-1,4.252182154802124,0.07400376156250044,0.6983000000000001,2.74739461,False,True
3946,Li6MnV3(PO4)6,mp-887374,P-1,3.1515046088032124,0.053144076640607274,0.8588,2.5852836,False,True
3947,Li6MnV3(PO4)6,mp-1176973,P1,2.8525580209105454,0.04113782364060903,0.6435,2.08740074,False,True
3948,Li4Mn3(PO4)4,mp-758852,P1,3.204716208287222,0.022251448611086744,0.13809999999999967,2.29391226,False,True
3949,Li9Mn2Co5O16,mp-1175696,C2,4.177067895496745,0.1464049471875004,1.3477999999999999,2.19578992,False,True
3950,Li2VOF4,mp-759716,Pm,2.811360120598366,0.09380966312499961,0.8844,-0.44266283,False,True
3951,Li2Co(CO3)2,mp-1567455,Cc,2.655289031299925,0.04923798590909367,3.0592,0.47039077,False,True
3952,Li3V2P4(HO8)2,mp-753630,P1,2.910723855278238,0.06812413888888891,0.833,2.8227989,False,True
3953,Li3Ni2P2(O4F)2,mp-758764,P2_1/c,3.3034182960938243,0.029959228713234864,0.0,1.10257578,False,True
3954,Li4MnCo2O7,mp-1174767,P1,4.13379190707249,0.1565162971428551,0.04269999999999996,2.92183331,False,True
3955,Li7Mn4CoO12,mp-1175296,Cm,3.953271811042093,0.05883178385416521,0.39139999999999997,3.25076817,False,True
3956,Li7Mn4CoO12,mp-1175272,P2,3.955873900955769,0.04089921135416574,0.7963,3.44516027,False,True
3957,Li6Mn3CoO10,mp-1174332,Cm,3.8730256894579336,0.10997149437499676,0.0,2.90502362,False,True
3958,Li9Mn2Co5O16,mp-1100594,Pm,4.141650212685413,0.11058341250000048,0.0,2.60702676,False,True
3959,Li3NbO4,mp-31488,I-43m,3.9598849973372388,0.0,3.6449,0.91331565,True,True
3960,Li5Mn4(P2O7)4,mp-849607,P1,2.9901714321718353,0.045306709500013476,0.18199999999999994,1.49411503,False,True
3961,Li2AlCoO4,mp-1178049,Pnma,3.158078014952491,0.07758026687499964,1.7803,1.10887937,False,True
3962,Li9Mn2Co5O16,mp-1176143,P1,4.270367542012704,0.07731173906250088,0.5783999999999998,3.41054722,False,True
3963,Li9Mn2Co5O16,mp-1175627,P1,4.218922028766812,0.064809119375,1.1589999999999998,3.54975441,False,True
3964,Li4Si2NiO7,mp-1177304,C2,2.91963012998963,0.03207989107143039,2.3215,1.74046046,True,True
3965,Li9Mn2Co5O16,mp-1175674,P-1,4.20329331069722,0.0951289187500004,0.3613999999999997,2.63578497,False,True
3966,Li4Co3O7,mp-1174390,C2/m,4.222360005319785,0.08332245071428357,0.28759999999999986,2.46537537,False,True
3967,Li3FePCO7,mp-766699,P2_1/c,2.8622331565072385,0.06306918134615458,4.2436,1.5103919,False,True
3968,Li4MnCo2O7,mp-1174490,P-1,4.078288572102789,0.1346031996428554,0.0,2.61300384,False,True
3969,Li4MnCo2O7,mp-1174612,P1,4.14317032854055,0.08332740535714134,0.8601999999999999,3.24336784,False,True
3970,Li3Ti(PO4)2,mp-757905,C2/m,3.0081083964304316,0.07167532552380784,0.14219999999999988,5.17807772,False,True
3971,Li2FeBO4,mp-1177958,P2_1/c,3.0761316830057743,0.08718584468750024,2.7779999999999996,3.95238779,False,True
3972,Li3NiPCO7,mp-766592,P2_1/c,2.9801321110456507,0.07712888923077355,3.3762000000000003,1.7163612,False,True
3973,Li3Fe2(SiO4)2,mp-758173,P2_1,2.9212932745323243,0.0408181360000075,1.8961000000000001,2.11560132,True,True
3974,Li3Cr2(PO4)3,mp-25837,P2/c,3.0402301043889426,0.036163166500004174,2.9463000000000004,1.74745388,False,True
3975,Li5CoO4,mp-773454,Pnnm,2.768172583645409,0.05433361999999775,1.4065999999999999,0.77616399,True,True
3976,Li3Sn2(PO4)3,mp-758376,P2/c,3.447923325597096,0.089893132708327,1.7405,2.8893271,False,True
3977,Li9Mn2Co5O16,mp-1100561,Pm,4.128360368670942,0.1234735290625002,0.0,2.55793884,False,True
3978,Li3MnV(PO4)3,mp-778016,Fddd,3.173709087256097,0.08831302331249713,0.0,2.95767236,False,True
3979,Li2FeO2F,mp-780532,C2/c,3.549062610017124,0.08777624916666582,1.9398000000000002,1.48043141,False,True
3980,Li4B4Sb2SO16,mp-768968,Fddd,3.1241851836286427,0.09418051811727146,2.561,1.22443402,True,True
3981,Li2V(PO4)2,mp-540312,P2_1,2.898908837911293,0.04428103698717045,1.0885,1.4158316,False,True
3982,Li5V3P8O29,mp-759762,P1,2.572680040042641,0.03676397731481362,0.5847999999999999,0.76128744,False,True
3983,Li11Fe3B24(PbO24)2,mp-694909,P1,3.3475501186480097,0.005328589730112299,1.1731000000000003,1.9726365,False,True
3984,Li6V3P8O29,mp-772985,P1,2.588777792126853,0.022011558759050587,1.4081,0.63326847,False,True
3985,Li2V(PO3)4,mp-758027,P2_1/c,2.3848254166723106,0.07431748149123596,2.3674,2.73335961,True,True
3986,Li2FeSiO4,mp-18968,Pmn2_1,3.1292726670855937,0.0,3.1235999999999997,2.15053799,True,True
3987,Li2MnSiO4,mp-850798,P2_1/c,2.926627816991881,0.029228132187499867,3.0436000000000005,1.78040008,False,True
3988,K4Li7Mn2O8,mp-766140,P1,2.6552822181485496,0.07305795797618941,0.0,1.66557022,False,True
3989,Li2FeP2O7,mp-1101596,C2/c,2.8285468184531575,0.04064343368052459,0.11519999999999997,1.77029473,True,True
3990,Li9Mn2Co5O16,mp-1175686,P-1,4.1339495141973055,0.12610811593750082,0.0,2.5597498,False,True
3991,Li7Mn5O12,mp-1651541,P-1,3.8673158497474236,0.03331245812500061,0.7842000000000002,2.73215799,False,True
3992,Li4FeP2O9,mp-26901,C2/m,2.7621058969094383,0.05813883035156131,0.0,1.3627884,False,True
3993,Li3Co2(SiO4)2,mp-758102,Pc,3.034508293557649,0.05552117399999901,0.040200000000000014,1.62773768,False,True
3994,Li9Mn7O16,mp-1100541,P-1,3.908861429319926,0.02288897546875024,0.9314999999999998,2.71394468,False,True
3995,Li9Mn2Co5O16,mp-1176320,P2,4.233046581201207,0.07741730531250024,0.0,2.40837902,False,True
3996,Na3Li6Mn5O9,mp-765723,P1,3.222203731272944,0.08969975884932335,0.0,3.37316103,False,True
3997,Li32Mn5Cr11O48,mp-777689,C2,3.628395358844218,0.046616066354164154,0.4636,2.5312012,False,True
3998,Li5Mn2CoO8,mp-1174383,P1,3.9440220814548237,0.044724400000000664,1.4664000000000001,3.61230873,False,True
3999,Li4MnCo2O7,mp-1174773,C2,4.193949047814101,0.09919552571428358,0.31190000000000007,2.74868143,False,True
4000,Li9Mn2Co5O16,mp-1175695,P-1,4.2710272109500185,0.23605152218750014,0.0,2.95130367,False,True
4001,Li5V4(PO4)6,mp-771281,Pc,2.8792589481521302,0.007917201362164228,0.9077,1.78393826,False,True
4002,Li4Fe3(BO3)4,mp-766514,Pc,3.059880639996744,0.04549363728260847,1.6564999999999999,1.44060875,False,True
4003,Li8GeO6,mp-28548,P6_3cm,2.710008697105687,0.0006375609999969001,3.4877000000000002,0.273683,True,True
4004,Li3MnAlO4,mp-770591,I4_1/a,2.7818234703280504,0.05400357729166494,0.8266999999999998,2.47277573,True,True
4005,Li3Mn2P2(CO7)2,mp-768753,P1,2.701007286729943,0.035822507282564864,0.0,0.91278012,False,True
4006,Li5Mn4O8,mp-756461,C2/m,3.8389745071752235,0.07088765303921551,0.0,3.7052123,False,True
4007,Li3Al2VO6,mp-755151,C2/m,3.507932606085332,0.027454550416666557,1.7569,4.85283842,False,True
4008,Li7Mn2(CoO4)3,mp-1345097,P1,4.029272285218579,0.6052383470833336,0.0,3.08201265,False,True
4009,Li3NiPCO7,mp-766661,P1,2.9447695981562316,0.0551467461538504,2.8839,1.7796925,False,True
4010,Li2MgGeO4,mp-1210797,Pmn2_1,3.232025279543363,0.0,3.7673,4.11127788,False,True
4011,Li3MnV(PO4)3,mp-1177619,P1,2.9582957579211606,0.06253937656249775,0.5813999999999999,2.06107431,False,True
4012,Na8Li9(FeO4)4,mp-768443,P1,2.7312915082029012,0.04281216269626409,0.0,0.74831334,False,True
4013,Li5Fe2P5O18,mp-1177139,P-1,3.05817400415334,0.03566717966667454,2.1125,1.67496874,True,True
4014,Li9Mn2Co5O16,mp-1100685,Cm,4.154139388709832,0.09262841593750082,0.07750000000000012,2.82838979,False,True
4015,Li8TiMn3(PO4)6,mp-768533,P1,2.8176589980834477,0.042163047916671026,0.9361999999999999,2.15947617,False,True
4016,Li9Mn2Co5O16,mp-1175969,P1,4.23119787088423,0.0993606806250007,0.0,2.73590433,False,True
4017,Li5MnCr3O8,mp-761082,P4_32_12,3.9216376402098643,0.06072198024509845,1.9727000000000006,3.32758723,False,True
4018,Li2FeP2O7,mp-1641248,P-1,2.908351145405935,0.03177096930552459,4.3859,1.8612036,False,True
4019,Li7V3P8O29,mp-757637,P1,2.5868720239269063,0.011667655988473413,0.4691000000000001,1.31900736,False,True
4020,KLi3Ca7Ti2Si12(O18F)2,mp-641919,C2/c,2.8138309294494515,0.0,3.5221,1.42806931,False,True
4021,Li3(CuO2)2,mp-545467,C2/m,4.092986697717398,0.01249471555555548,0.0,2.74809519,False,True
4022,Li5Mn2CoO8,mp-1174601,R3m,3.6331080469945927,0.29009111374999996,0.0,2.15672127,False,True
4023,Li4Si4Bi2O13,mp-756672,Pna2_1,4.371519102015308,0.08280421043478103,3.8328,2.90006406,False,True
4024,Li6Mn2OF11,mp-1177011,C2,3.0201325533489345,0.05180906639583771,0.0,-0.3458976,False,True
4025,Li6Mn(OF2)2,mp-753004,C2/c,2.177344805054253,0.10661525935897309,2.371,0.1083617,False,True
4026,Li9Mn2Co5O16,mp-1100616,Cm,4.1134782574133615,0.2467729753125001,0.0,2.61478462,False,True
4027,Li2NiP2O7,mp-584012,C2/c,2.644890035859815,0.021306250763887036,0.4053,2.06820305,False,True
4028,Li9Mn7O16,mp-1100484,C2/m,3.9122060681770616,0.03797531203125004,1.2165,2.72312635,False,True
4029,Li2FeOF3,mp-755818,C2/m,3.1176349691701515,0.0732066021825295,2.1822000000000004,0.07343229,True,True
4030,Li2BiPCO7,mp-768160,P2_1/m,3.9106032245605746,0.057602079999997,3.6529,1.04861492,False,True
4031,Li5V3CrO8,mp-760963,P6_3mc,4.05120891180016,0.10645279441176392,0.23819999999999997,5.3910501,True,True
4032,Li2FeOF3,mp-780672,Cm,3.157013934367053,0.06424228539681476,1.9802000000000002,0.17096517,False,True
4033,Li2Sn(H5O4)2,mp-703343,P2_1/c,2.6727472241401022,0.0065535357142954,4.1652000000000005,-0.70238031,False,True
4034,Li5Mn2CoO8,mp-1304644,P-1,3.925236102309148,0.06040114000000063,0.3174000000000001,2.61442565,True,True
4035,Li3CrPCO7,mp-1177745,P1,2.715575012926053,0.08385984425480952,1.8953000000000002,3.26742886,False,True
4036,Li5Co3O8,mp-1174039,C2/m,3.9984269777396344,0.09517058999999772,0.13180000000000014,2.23836245,False,True
4037,Li5Bi2(BO3)4,mp-768452,Pc,4.278852284714972,0.03255440956522904,0.0,1.35380755,False,True
4038,Li4MnCo2O7,mp-1174425,P-1,4.146527773354327,0.07052219142856941,1.4651999999999998,2.11295103,False,True
4039,Li3MnV(PO4)3,mp-778471,P1,3.0172963419987373,0.0310614991874969,0.6243000000000003,1.92225409,False,True
4040,Li7Mn2(CoO4)3,mp-1175179,Pm,3.9807371754414356,0.12365558624999995,0.0,2.56263885,False,True
4041,Li9Mn2Co5O16,mp-1175526,P-1,4.167746483660393,0.0763297915625003,1.1519,2.22656508,False,True
4042,Li4NbO4,mp-756628,Cmcm,3.1341566784383956,0.09179644673611165,0.0,3.65026488,False,True
4043,Li6V3P8O29,mp-1177071,Cc,2.5810373819840278,0.02209528604165989,1.5876000000000001,2.07434609,False,True
4044,Li3V2(OF)4,mp-776500,P1,3.135128880016761,0.07306749538462043,1.2909,0.9104108,False,True
4045,Li7Mn4CoO12,mp-1175312,Cm,3.833604838464604,0.09895892635416548,0.0,2.23703208,False,True
4046,Li10Cr3Co2Ni3O16,mp-777762,P1,4.447483968843803,0.10660392698529453,0.0,3.36317582,False,True
4047,Li2CoH12(SO7)2,mp-770638,P2_1/c,2.1020645032521323,0.068448860887103,3.3284000000000002,-0.02851532,False,True
4048,RbLi7(NiO3)2,mp-754101,C2/m,3.0897506555992558,0.09609148312499993,2.0888,0.88425908,False,True
4049,Li7Mn2(CoO4)3,mp-1175076,P1,4.063251352243619,0.13183626375000035,0.0,2.54380178,False,True
4050,Li7Co5O12,mp-1174271,P-1,4.266554576944881,0.05205811333333088,0.6856,2.34722052,False,True
4051,Li9Mn2Co5O16,mp-1100694,P2/m,4.217630909131964,0.2329978831250008,0.0,2.69961128,False,True
4052,Li2CoCSO7,mp-771972,P2_1/m,2.667978202784912,0.061918652916670425,2.4992,1.19994118,False,True
4053,Li2V(OF)2,mp-761125,P2,2.967678266701798,0.0717306453571469,1.3353000000000002,0.88663864,False,True
4054,Li4Mn3O7,mp-1174326,P-1,3.931362024711654,0.047692522499999335,0.5547999999999997,2.96359281,False,True
4055,Li3CuB3O7,mp-1194301,P-1,2.6309867103330893,0.03036469160713562,0.4353999999999998,1.73147902,False,True