,formula,mp-id,crystal system,density,energy above hull,band gap,efermi,is gap direct,theoretical
775,Li3MnVP2(HO5)2,mp-753439,P1,2.9347424717316817,0.04546468085526101,2.0258,2.2126933,False,True
776,Li2CoPHO5,mp-1565574,P-1,3.1670903586576458,0.06142739799999841,2.84,1.82761224,False,True
777,Li3Mn(BO3)2,mp-768418,P2_1/c,2.7484845950353884,0.060659309583332544,1.223,2.52351862,False,True
778,Li10Cr(SiO5)2,mp-767255,C2/m,2.3862317670131756,0.09394523333333105,0.6698,2.07420033,False,True
779,Li12Cr3NiP4(CO7)4,mp-1178088,Pm,2.746662692407396,0.06840719751802737,2.3780999999999994,3.35617534,False,True
780,Li5MnO4,mp-770528,P4_2/nmc,2.6477713769977167,0.09847376437499733,0.0,0.96323297,False,True
781,Li7Mn4CoO12,mp-1175361,C2/m,3.7660246623141242,0.17163332677083165,0.0,2.44564082,False,True
782,Li2VP3O10,mp-757972,P2_1/c,2.1961360301646566,0.05173977697916676,2.1159,0.5455257,True,True
783,Li2Cr(PO4)2,mp-758988,P-3,2.7918730402910765,0.05993829757326097,0.0,0.77990046,False,True
784,Li7Mn(OF)3,mp-760307,P1,2.4854763579523853,0.08530135595238075,3.0122,1.0549366,False,True
785,Li3VO3F2,mp-1398000,P1,2.540682169631169,1.4181261519444428,0.030200000000000005,1.27161995,False,True
786,Li2FeO2F,mp-754758,P-3m1,3.628175705272978,0.002776177083332776,1.4225000000000003,1.78002327,False,True
787,Li9Mn2Co5O16,mp-1100758,Cm,4.206972567836336,0.09898559906250082,0.22059999999999969,2.81194392,False,True
788,Li5Cu(PO4)2,mp-772939,P1,2.8963090987661153,0.033660396093750045,2.0388999999999995,3.69330163,False,True
789,Li6Fe3Co(PO4)6,mp-757363,P1,3.0516669406016828,0.05885444701041642,1.7217999999999998,1.47841021,False,True
790,Li2Bi(BO2)5,mp-768756,P2_1/c,3.356859809440691,0.05138131881948382,3.3903999999999996,0.69778326,False,True
791,Li4Co3O7,mp-1174520,R-3m,4.137547081842964,0.20766995142856892,0.0,2.71146422,False,True
792,Li9Mn2Co5O16,mp-1176174,P1,4.119905996148525,0.24928409218750058,0.0,2.43460986,False,True
793,Li24Mn5Cr7O36,mp-777958,P1,3.627748595243286,0.03641702013888537,0.883,2.23889851,True,True
794,Li3V2(O2F)2,mp-760013,C2,3.4189618662208936,0.09552628185604917,0.0,2.08575231,False,True
795,Li6V(SiO4)2,mp-765250,Pc,2.6083378556234234,0.0789642649095077,1.5238,3.51366921,False,True
796,Li3V(Si2O5)3,mp-757761,Cmce,2.6111424543707815,0.0344459657499927,3.2295,2.72056472,True,True
797,Li5V3P8O29,mp-760183,P1,2.5841659531023766,0.03783059098148023,1.0693000000000001,0.5747519,False,True
798,Li9Mn2Co5O16,mp-1175921,P1,4.23397332586526,0.09913370125000043,0.0,2.72669391,False,True
799,Li2VSO4F3,mp-769602,P2_1/c,2.577246059988682,0.08655712659091197,2.237,0.33400419,False,True
800,Li24Mn7Cr5O36,mp-768759,P1,3.6701076906812613,0.03344045312500121,1.1079,2.06421209,False,True
801,Li2CuPO4,mp-26695,Pnma,3.3250367618023837,0.054951747500000536,1.7827000000000002,5.31694573,False,True
802,Li7Mn4CoO12,mp-1175295,Cm,3.953878706023029,0.06022484885416546,0.7254,2.9133878,False,True
803,NaLi2MnPCO7,mp-771039,P1,2.740949407745161,0.041030516025636565,3.4761,2.13349195,False,True
804,Li5FeO3F,mp-753464,Ama2,2.634812827705918,0.0901976315000006,2.8981000000000003,0.82738727,False,True
805,Li9Mn2Co5O16,mp-1175981,P1,4.101513842634642,0.13533827812500032,0.0,2.70694954,False,True
806,Li9Mn2Co5O16,mp-1176178,P1,4.12160135853771,0.12317843218750024,0.12419999999999964,2.61956737,False,True
807,Li5MnO3F,mp-1302599,P2_1/m,2.474311912464634,0.07841745133333244,1.3103000000000002,2.08597978,False,True
808,Li7Mn5O12,mp-1647928,P1,3.86554626926369,0.030890547708333216,0.6913,3.52946651,False,True
809,Li9Mn2Co5O16,mp-1232442,P1,4.15618311417385,0.11750747281250007,0.0,2.59614308,False,True
810,Li3Mn2(PO4)3,mp-26845,C2/c,2.993838369062536,0.03128073275004972,0.9772999999999998,1.41353333,False,True
811,Li2V(SO4)2,mp-759347,Pbca,2.7690237023686084,0.03481814288223717,3.5671999999999997,3.03975298,False,True
812,Li3VSi2O7,mp-1253145,P1,2.837335289946124,0.025137408189122468,2.2957,2.4876823,True,True
813,Li3NiPCO7,mp-766595,P2_1/c,2.980229733054831,0.07708758596154297,3.3582,1.63151778,False,True
814,Li4VO4F,mp-752582,Cc,2.298410855741165,0.029150574500001802,3.8303000000000003,-1.14515127,False,True
815,Li4MnCo2O7,mp-1174418,P-1,4.1180747883021835,0.07101413892856989,0.7075999999999998,3.1748216,False,True
816,Li6NbO6,mp-1213311,C2/c,2.9645317028867013,0.1476567066346144,0.0615,0.4371835,False,True
817,Li4V3P8O29,mp-1177212,P1,2.523126383028693,0.04620849344696776,0.7001999999999999,0.36300094,False,True
818,Li2FeP2O7,mp-540231,P2_1/c,2.935595653841002,0.023576810555524297,4.678000000000001,1.91611764,True,True
819,Li7V4(PO4)6,mp-760371,R3,2.8541726241668828,0.01643244890243878,0.0,3.86706389,False,True
820,Li5CoOF5,mp-752884,P4/mmm,3.1875568186184013,0.034228180624999105,0.06909999999999972,2.20696461,False,True
821,Li32Mn11Cr5O48,mp-777960,P1,3.685573152354406,0.024327216406250685,1.0191999999999999,3.00603553,True,True
822,Li2Mn(SiO3)2,mp-754949,Fdd2,2.765183965208781,0.01065821401514988,3.4868999999999994,1.7589419,False,True
823,Li2NiP2O7,mp-801636,P-1,3.0965873051806776,3.65550611722222,0.0,4.48922646,False,True
824,Li5Sb2P5O18,mp-26585,P-1,3.3408883507432634,0.026385133972226527,3.5081,2.79807331,True,True
825,Li6V5(P2O7)4,mp-764967,P-1,2.950605436289933,0.054027713947244926,2.633,3.65621448,False,True
826,Li4Mn3O7,mp-1174351,C2/m,3.8850534147241804,0.04058194249999936,1.1959,2.67798558,False,True
827,Li7Mn4CoO12,mp-1175304,Cm,3.8846685549220057,0.09303468468749898,0.0,2.49798958,False,True
828,Li9Mn2Co5O16,mp-1175704,P-1,4.1748298987350285,0.1143164215625001,0.0,2.7551199,False,True
829,Li7Mn2(CoO4)3,mp-1174988,P1,4.092215426049683,0.07448076083333444,0.4527000000000001,2.81204004,False,True
830,Li7Mn2(CoO4)3,mp-1174913,P-1,4.0327554153093645,0.16556215875000024,0.0,2.51815521,False,True
831,Li3Mn2(P2O7)2,mp-849650,P1,2.9532347097775977,0.028107538369565255,0.16060000000000008,1.69698875,False,True
832,Li6Mn3CoO10,mp-1174309,Cm,3.8566898826668763,0.3639003258749973,0.0,2.59721614,False,True
833,Li3Pr3(TeO6)2,mp-1211386,Ia-3d,5.679725322968047,0.0,3.1280999999999994,3.1088656,True,True
834,Li7Mn4(P2O7)4,mp-1177074,P1,2.9382885542930577,0.013062823989333339,0.23550000000000004,1.84603647,True,True
835,Cs2Li14Pb3O14,mp-1213711,Immm,5.023709691423893,0.0,1.8713000000000002,1.41548455,True,True
836,Li3Mn2(P2O7)2,mp-1177664,P1,2.95990156927068,0.029908218478261084,0.10550000000000015,1.65049699,True,True
837,Li3Mn2O5,mp-1174041,C2/m,3.638221969040729,0.18391024000000034,0.0,2.08893691,False,True
838,Li6Sn5(P2O7)4,mp-765227,P-1,3.340658149077175,0.06672291781914197,2.6673000000000004,5.25815175,False,True
839,Li2MnP2HO8,mp-779443,P2_1,2.94329623449494,0.005188219196432087,0.7346999999999999,1.51002602,False,True
840,Li3Cr(PO3)8,mp-26329,C2,2.667786537168352,0.05230106913194632,0.0,0.60582624,False,True
841,Li4MnCrO6,mp-768649,C2,3.6592940490433756,0.03824408666665402,0.7544,2.11859476,True,True
842,Li32Mn13Cr3O48,mp-778110,P1,3.709199516446395,0.01489687932290984,1.0171,2.05917294,False,True
843,Na3Li3Mn2P2(CO7)2,mp-772236,P1,2.8171697558132993,0.03487627557692008,3.2931999999999997,2.0473695,False,True
844,Li7Mn2(CoO4)3,mp-1174934,P1,4.080499097241913,0.08193544750000026,0.7867000000000002,3.22141381,False,True
845,Li8MnO5F,mp-766137,P1,2.3249908029838187,0.06563461533333648,0.478,1.00773718,False,True
846,Li7Co(O2F)2,mp-1370991,P1,2.542623716792179,0.5655757874999967,1.0918,1.0363677,False,True
847,Li6Mn3CoO10,mp-1174821,P1,3.9500200669072605,0.06946320287499841,0.7349000000000001,3.44572706,False,True
848,Li2Co(PO4)2,mp-583967,P1,2.433763042139213,0.06736379870192444,0.0,-0.59880871,False,True
849,Li9Co7O16,mp-1175440,P-1,4.271962403136861,0.07859987593749995,0.4458000000000002,2.36005845,False,True
850,Li8BiO6,mp-754586,R-3,4.019303421292716,0.028812937083335655,0.0,2.40385681,False,True
851,Li2Nb(PO4)2,mp-757817,P2_1/c,3.1565645091884496,0.10723703259615824,1.1534000000000004,4.2177329,True,True
852,Li3V2(PO4)3,mp-1202865,P2_1/c,2.8855389793055144,0.024901213500027275,1.9273,1.9279773,False,True
853,Li3CuO2,mp-756495,P2_1/c,2.8890123972204518,0.09576858624999929,2.1601,0.9754686,False,True
854,Li3Bi2(PO4)3,mp-25929,R-3,4.203076634588401,0.03850892175000009,3.7495,1.14345953,False,True
855,Li2CoP2O7,mp-757369,C2/c,3.174906475943928,0.1542624203472025,3.3133,2.4219692,False,True
856,Li9Mn2Co5O16,mp-1176311,P1,4.138170546908086,0.2796674815625009,0.0,2.25924838,False,True
857,Li9Mn2Co5O16,mp-1100676,Cm,4.172985110507432,0.09871136062500074,0.010400000000000187,3.15647982,False,True
858,Li5Ti(SiO4)2,mp-760462,C2,2.495540213416989,0.06464301031250308,0.5455000000000005,4.07348088,False,True
859,Li9Mn2Co5O16,mp-1175658,C2,4.258084149591708,0.08234966000000021,0.0,2.68539327,False,True
860,Li5Mn3O8,mp-1174722,P2/m,3.707718796509666,0.10113546781250005,0.0,2.46055304,False,True
861,Li7Mn4CoO12,mp-1642922,C2/m,4.010714119029569,0.03425365031249861,0.030600000000000183,3.4276055,False,True
862,Li4FeC6ClO21,mp-1205261,Ama2,1.948048292206081,0.6916899049242424,0.0,-1.37145838,False,True
863,Li7Mn2(CoO4)3,mp-1174838,P-1,4.086947125237404,0.09129638041666777,0.37729999999999997,2.57362208,False,True
864,Li4VP2O9,mp-757584,Cmme,2.6262011522302062,0.08286274171874997,1.2345,1.50256947,False,True
865,Li7Mn5O12,mp-1175347,C2/m,3.854403816454055,0.0422774033333333,0.0,3.20235663,False,True
866,Li5MnO3F,mp-759909,Pnma,2.4472434003810797,0.09167844558333282,1.8801999999999999,1.06712105,True,True
867,Li3Co2O5,mp-1174044,C2/m,4.067184148343992,0.08378055550000063,0.36809999999999965,2.39514202,False,True
868,Li9Mn2Co5O16,mp-1100648,Pm,4.145810065452287,0.1186241787500002,0.0,2.82197427,False,True
869,Li6Mn(FeO3)2,mp-1306251,P-1,3.59072076571191,0.04660571674999936,2.6438,2.17719374,False,True
870,Li4V3P8O29,mp-851113,P1,2.5250544404725095,0.046397680265150676,0.7975,0.36507858,False,True
871,Li12V3NiP4(CO7)4,mp-1178087,Pm,2.7433650431675995,0.06553637459134798,2.0119000000000002,3.75225116,False,True
872,Li8(CoO2)5,mp-1638660,P1,3.328170455502747,0.04847664720108735,0.6687999999999998,1.47994623,False,True
873,Li2AlNiO4,mp-755669,Pmn2_1,3.2186222765748407,0.09089593447916666,0.9183999999999999,1.80621731,False,True
874,Li8(CoO2)5,mp-752627,P-1,3.3055202928862943,0.050414420244566216,0.0,1.78391783,False,True
875,Li2Cr(SiO3)2,mp-758182,Pmn2_1,2.9671207612509014,0.08965321515151903,1.5998,4.18402827,False,True
876,Li3Bi2(PO4)3,mp-780333,P2_1/c,4.252846919073859,0.04392783362500019,4.1065,1.58199613,True,True
877,Li7Mn2(CoO4)3,mp-1175014,Cm,4.029569222676697,0.14020112249999972,0.0,2.41608763,False,True
878,Li2Si2NiO6,mp-1569720,C2,2.909463230905745,0.05104739431816885,3.4257999999999997,4.98453628,True,True
879,Li4MnCo2O7,mp-1174581,C2/m,4.12127619614943,0.0683429596428562,0.9243999999999999,3.43238535,False,True
880,Li3Mn2(PO4)3,mp-26367,C2/c,3.197114540838348,0.02239249550004896,0.7353000000000001,1.96692536,False,True
881,Li2CuO2,mp-1239022,C2/m,3.779132873555142,0.04737531124999972,0.0,3.61954602,False,True
882,Li7Mn5O12,mp-1640750,P1,3.8702257448749435,0.030630199375000444,0.9539,2.66379954,False,True
883,Li9Mn2Co5O16,mp-1100647,Cm,4.145163621237207,0.10953818281250083,0.06510000000000016,2.47321488,False,True
884,Li4Fe3O8,mp-775127,R-3m,3.551388470095691,0.06690201354761971,0.0,1.98773953,False,True
885,Li2FePCO7,mp-768644,P2_1/c,2.7127080099649667,0.021520969270851786,2.1799,3.00129314,False,True
886,Li5(BiO3)4,mp-867727,P-1,6.217170163920878,0.021892697192464006,0.0,2.86126392,False,True
887,Li2MnO2F,mp-1643079,Immm,3.485268511130007,0.03648241624999571,2.1220999999999997,1.46832105,False,True
888,Li4Ni(PO3)6,mp-859119,P1,2.6987258837044017,0.05966246956896715,3.8620999999999994,0.7473048,False,True
889,Li3MnCoO5,mp-1173971,P-1,3.8971865691008407,0.13810911849998853,0.08099999999999996,2.50448141,False,True
890,Li2VO3,mp-774192,P-1,3.4607014579109476,0.022451055833332845,1.3261000000000003,2.62968463,False,True
891,Li4MnCo2O7,mp-1174562,C2/m,4.124447101210767,0.200504941785713,0.0,2.45830338,False,True
892,Li3AsO4,mp-9197,Pmn2_1,3.212282621281307,0.0,4.07,-0.1039795,False,True
893,Li6Ti3V(PO4)6,mp-758994,P1,2.8298996376482513,0.0735733741171849,0.009400000000000297,4.30285547,False,True
894,Li9Mn2Co5O16,mp-1100573,Pm,4.157188150224812,0.13119660937500033,0.0,2.86689424,False,True
895,Li4V2Si(PO6)2,mp-770503,Pc,2.897968133741663,0.0834521013888958,1.8829000000000002,2.58428418,False,True
896,Li4V3P8O29,mp-759078,Cc,2.5466595371696013,0.05143811890151362,1.0671,0.32361218,False,True
897,Li2CoSiO4,mp-758473,P2_1/c,3.174728707177461,0.021385339999993924,2.7693000000000003,1.81445923,False,True
898,Li6MnV3(PO4)6,mp-1176976,P1,2.900751998563016,0.017238417015608576,0.44269999999999987,1.83354231,False,True
899,Li9Mn2Co5O16,mp-1176130,P1,4.139540075588954,0.26579028625000056,0.0,2.4632763,False,True
900,Li5Co3O8,mp-1174003,C2/m,4.061100423019025,0.04126755624999756,0.0,1.83936311,False,True
901,Li9V5(Si5O16)2,mp-863437,C2,3.5004842041384796,0.09500964493300312,1.4964999999999993,4.41047711,False,True
902,Li7Mn5O12,mp-1175310,P-1,3.8721785443972623,0.052435339791665925,0.0,3.05964682,False,True
903,Li2Cr(PO3)4,mp-26417,C2/c,2.5885038635461606,0.030421840724645932,3.0103,2.21977539,False,True
904,Li9Mn2Co5O16,mp-1378747,P1,4.249721098020358,1.2047502221875002,0.0028999999999999027,3.25670462,False,True
905,Li2MnO2F,mp-1275135,C2/c,3.519502009021827,0.027562513749995965,2.404,1.381296,False,True
906,Li3Co2O5,mp-1174033,C2/m,4.099819508485055,0.11683350800000092,0.0,2.57202396,False,True
907,Li3SiNiO5,mp-766472,Pna2_1,2.9855940109279238,0.04884361458333153,0.6113,1.33155467,False,True
908,Li2MnOF3,mp-1275120,P-1,3.0673768798552423,0.07399664553571395,2.0397,-0.50711637,False,True
909,Li2MnSiO4,mp-849346,Pca2_1,2.8002376440441825,0.054557753124999664,2.8520999999999996,1.55796539,False,True
910,Li6CuO4,mp-752512,P4_2/nmc,2.7824332021848233,0.05521358738636373,0.18789999999999996,1.49471262,False,True
911,Li2VO2F,mp-1278467,P-1,3.445716537747965,0.05752943999999616,1.4776999999999996,4.47477733,False,True
912,Li3VPCO7,mp-766585,P2_1/c,2.7566260533614497,0.08960778615384779,2.8339,6.034725,False,True
913,Li4Fe3OF8,mp-799684,P1,3.664275717259947,1.5621970087500001,0.0,2.96953266,False,True
914,Li11Cr3Fe3O16,mp-759872,Cm,3.55918115473704,0.09109158318181532,0.0,2.07335461,False,True
915,Li2Fe(Si2O5)2,mp-759063,P2_12_12_1,2.32335222653802,0.07506663499999977,3.7780000000000005,1.3132894,True,True
916,Li3V2(PO4)3,mp-643154,P2_1/c,2.8660855827536844,0.007098522500027293,2.0608,1.95648071,False,True
917,Li2FeO3,mp-759394,Pnna,3.6519006786610246,0.06686511041666687,0.0,1.93148248,False,True
918,Li5V2Cr2O8,mp-752568,C2/m,3.9239826549848025,0.08026749941176359,0.4616000000000007,4.81702839,False,True
919,Li7Mn2(CoO4)3,mp-1175146,Pm,4.1237574232784,0.10918128916666703,0.0,3.09314526,False,True
920,Li3Fe(PO4)2,mp-757579,P2_1/c,2.7776177687023327,0.09227173499999708,1.1543999999999999,1.12230366,False,True
921,Li6V3P8O29,mp-1176922,P1,2.579454215906806,0.02412111615035517,0.8420000000000001,1.12801113,False,True
922,Li3CrPCO7,mp-766704,P2_1/c,2.744416276715914,0.08568553213942476,2.7651,2.29243166,False,True
923,Li9Mn2Co5O16,mp-1100723,P2/m,4.12045283028884,0.09926921937500044,0.0,2.90662057,False,True
924,Li2CrPO4F,mp-25391,P1,2.956793115290634,0.04091348243056192,2.8005999999999998,2.55510135,False,True
925,Li9Mn2Co5O16,mp-1100716,P2/m,4.137273639140171,0.09679760625,0.0,2.62601138,False,True
926,Li6Bi2B4SO16,mp-779482,Fd-3,4.0249321894306584,0.08255918008621244,0.13070000000000004,1.91101767,False,True
927,Li9V6(P8O29)2,mp-1176978,P1,2.5383669265658972,0.04334573562734789,0.248,0.7353111,False,True
928,Na2Li5Ti3Fe(PO4)6,mp-773757,P1,2.9233556459037655,0.0910864292784499,0.09740000000000038,4.75128258,False,True
929,Li9Mn2Co5O16,mp-1176152,P1,4.118628605227106,0.13150979406250052,0.0,2.48639658,False,True
930,Li2V(OF)2,mp-1306444,C2/c,3.054763091579914,0.05876210357143208,1.79,0.66550781,False,True
931,Li9Mn2Co5O16,mp-1176236,P1,4.196059979531818,0.10753748312500022,0.0,2.75420016,False,True
932,Li9Mn7O16,mp-1100552,P-1,3.93524752935637,0.030281965781250086,0.6019999999999999,3.6390009,False,True
933,Li6MnV3(PO4)6,mp-761196,P1,2.9198260511518823,0.05495421976560877,0.05920000000000014,2.23244717,False,True
934,Li2Cr(PO3)5,mp-1101550,P2_1/m,2.5257022601585355,0.033132966014495224,3.3963,0.32249655,False,True
935,Li9Mn2Co5O16,mp-1100752,C2/m,4.140366090056493,0.1815048365625005,0.0,2.47668996,False,True
936,Li3CrPCO7,mp-771346,P2_1,2.6724923425900204,0.07625948810096173,2.4991999999999996,2.65379391,False,True
937,Li5V3P8O29,mp-759834,P1,2.5411248192053653,0.03504219142592557,1.2467000000000001,0.25048544,False,True
938,Li2Ni(PO3)4,mp-26165,C2/c,2.6301984761396136,0.012201016798249142,4.3565000000000005,0.59477547,False,True
939,Li6V2O5F2,mp-764951,P-1,2.9002271100319543,0.09448515166666471,1.5433,4.03785901,False,True
940,Li4MnCo2O7,mp-1174566,C2/m,4.139997355190385,0.06407499428571306,0.8591000000000002,3.40466304,False,True
941,Li2MnOF3,mp-765036,Pc,3.1072722443219765,0.09109777803571273,0.2562,0.63792889,False,True
942,Li8Cr2O9,mp-770861,P-1,2.973072015773927,0.0755499193421052,0.45829999999999993,2.14467798,False,True
943,Li2CrP4(H4O5)4,mp-759552,P2_1/c,2.0936704785734777,0.015225835377905561,0.3256999999999999,3.23148291,False,True
944,Li7Mn4CoO12,mp-1175333,Cm,3.9071998778001786,0.17931869552083146,0.0,2.77891276,False,True
945,Li5Mn2CoO8,mp-1174417,Cm,3.8365058675955437,0.11683518625000033,0.17600000000000016,2.83161595,False,True
946,Li3Si2(NiO4)2,mp-780288,Pc,3.0964763583297827,0.08841942428888849,1.0224,1.42333257,False,True
947,Li3CuO3,mp-19970,P4_2/mnm,3.3129160556126505,0.0,0.9644,0.5593831,False,True
948,Li8Fe7(PO4)8,mp-849393,Pmn2_1,3.3388722601962844,0.2206815009090901,0.2509000000000001,3.21227754,False,True
949,Li11V6O5F19,mp-780480,P1,3.048654183726899,0.08024612509147921,0.0,2.04703308,False,True
950,Li5V3P8O29,mp-1177059,Cc,2.56179803297656,0.03454177564814653,0.3126,0.80332097,True,True
951,Li2RhO3,mp-754870,C2/m,5.180825840455934,0.0,0.0,2.9147241,False,True
952,Li3SiSbCO7,mp-771304,P2_1/m,3.116857614913408,0.08762171384615858,3.4543,2.62238026,False,True
953,Li5Fe2P2(CO7)2,mp-768722,P-1,2.7435562701723795,0.0303112453500054,1.4253,1.79612011,False,True
954,Li2VSiO5,mp-766038,P2_1/c,3.0941046406399293,0.05196290444444518,1.3138,3.85263657,False,True
955,Li3Sb2(PO4)3,mp-684539,P2_1/c,3.274428646507034,0.05018141025001199,3.4768,2.305035,True,True
956,Li5V3P8O29,mp-1177248,P1,2.5445018947776337,0.037531432203702586,1.0207,0.38675486,False,True
957,Li5V3P8O29,mp-1177170,P1,2.5297924833629377,0.03607062575925912,1.0213,0.36523828,False,True
958,Li5Mn3O8,mp-1314325,C2/c,3.813625267394422,0.03936151406249966,0.8321999999999998,2.66964967,False,True
959,Li9Mn2Co5O16,mp-1176279,P1,4.162943079184819,0.12675797781250076,0.37670000000000003,2.6967171,False,True
960,Li2Mn(PO4)2,mp-757749,Pbca,3.1448707240622746,0.00983588237179589,0.0,1.78825327,False,True
961,Li19Mn8C16(SO16)4,mp-776592,P1,2.6113336181856317,0.06587919759009075,0.1016999999999999,1.00641951,False,True
962,Li4V2Si(PO6)2,mp-1255288,Cc,2.8936068975050255,0.07089325234127664,2.1223999999999994,2.35299846,False,True
963,Li7Mn4CoO12,mp-1175302,Pm,3.945493401463313,0.06319630510416463,0.8707000000000003,3.61247339,False,True
964,Li3Fe2(SiO4)2,mp-760971,Pc,2.873449706890271,0.07220823900000717,0.5579000000000001,2.89932032,False,True
965,Li4MnCo2O7,mp-1174580,C2/m,4.1010918249567165,0.10869905107142763,0.0,2.53655893,False,True
966,Li3FeO4,mp-1282942,C2/m,3.353365657521499,0.05902429187499969,0.0,1.21091526,False,True
967,Li8Ni(O2F)2,mp-861293,P-1,2.651600896553581,0.11169442500000049,2.7163000000000004,1.03268085,True,True
968,Li9Mn2Co5O16,mp-1175759,P-1,4.183425369555706,0.10331442031250049,0.06930000000000014,2.92256526,False,True
969,Li4MnCo2O7,mp-1174800,Cm,4.138475342150068,0.11349884249999942,0.0,2.9828037,False,True