,formula,mp-id,crystal system,density,energy above hull,band gap,efermi,is gap direct,theoretical
4633,Li2PWCO7,mp-25398,P2_1/m,3.9919569223864095,0.1011068588095263,3.2806999999999995,1.60661514,False,True
4634,Li6V3P8O29,mp-504367,Cc,2.5672060078918486,0.01842249615035474,1.4956999999999998,2.02101542,False,True
4635,Li3Co2(SiO4)2,mp-764516,P1,2.9380817102257057,0.09712433666666609,0.5178,1.09291237,False,True
4636,Cs2Li2TiO4,mp-8294,P-1,4.052284733786795,0.0,3.8213,0.81219709,False,True
4637,Li3Co2(SiO4)2,mp-781591,Pc,3.114653188429858,0.057556557333332314,0.0,1.85507098,False,True
4638,Li5V3P8O29,mp-1177091,P1,2.542726586338823,0.035554658537036765,0.8996000000000001,0.79525193,False,True
4639,Li4CrO5,mp-770826,P-1,2.983579441542571,0.051084340666665895,1.3869,1.20816193,False,True
4640,Li2FePCO7,mp-755726,P-1,2.6975379589478123,0.027899232395852458,0.5344,1.06209151,False,True
4641,Li5MnO3F2,mp-753558,C2/m,2.7200960173317603,0.0542891943181818,0.9852,0.65959769,False,True
4642,Li5V3P8O29,mp-773095,P1,2.544559727043086,0.03380587398148105,0.9132000000000001,0.48303602,False,True
4643,Li5Mn(CoO4)2,mp-1173992,C2/m,3.9402708270805196,0.07737705218749724,0.0,2.20418172,False,True
4644,Li2VPO4F,mp-1222675,C2,3.0177071638477777,0.03519420023662967,2.3950000000000005,4.08495797,False,True
4645,Li4Mn2Si4O13,mp-758881,Pna2_1,3.0465069216552267,0.057665989718274524,1.4366999999999996,2.63170321,False,True
4646,Li7MnP4O14F,mp-758227,Cc,2.6806856535682417,0.068430071111095,2.4507000000000003,3.42606876,False,True
4647,Li8Bi2PdO10,mp-560555,C2/m,5.386124558640047,0.0,0.7427000000000001,2.35178682,False,True
4648,Li9Mn2Co5O16,mp-1100749,C2/m,4.122368479351636,0.12710619250000033,0.0,2.57472094,False,True
4649,Li3Co2(SiO4)2,mp-759019,P2_1,3.156717864367336,0.06582085266666571,0.12490000000000001,1.84737728,False,True
4650,Li7Co5O12,mp-1174403,P2/m,4.247294648542473,0.054659885833331145,0.3349000000000002,2.66375675,False,True
4651,Li3Co2O5,mp-1174005,P-1,4.060194589065168,0.06896268900000013,0.7234999999999998,1.69205027,False,True
4652,Li3MnPCO7,mp-766591,P2_1/c,2.8009892451213676,0.06379004115384657,3.7960999999999996,5.68056623,True,True
4653,Li4V3P8O29,mp-851253,P1,2.518152062786564,0.045835415946968716,0.43879999999999997,0.58452095,False,True
4654,Li6V3P8O29,mp-772075,P1,2.588780530776634,0.022142779846007876,1.4841,0.61348215,False,True
4655,Li4Sb2H6O3F10,mp-769122,P2_1/m,3.181066442008339,0.07822651100000044,4.648000000000001,0.18944011,False,True
4656,Li5Mn2(PO4)3,mp-1177120,P-1,2.7210134233560748,0.08382074045453969,3.673,1.42569026,False,True
4657,Li3BiO3,mp-756633,I-43m,5.151690647333194,0.060017775357143144,2.4847,1.66355246,False,True
4658,Li7Mn2(CoO4)3,mp-1174929,P1,4.140828167481402,0.0773677450000001,0.11169999999999991,2.6782782,False,True
4659,Li6V3P8O29,mp-760124,P1,2.59898826390342,0.022661584302529292,1.3717000000000001,0.66914719,False,True
4660,Li2VPCO7,mp-25402,P2_1/m,2.634845071989412,0.030499864687498324,1.7576,1.38743164,False,True
4661,Li4V3OF11,mp-1177290,P1,2.9380657492029965,0.0732438419736905,0.21589999999999998,1.6921714,False,True
4662,Li9Mn2Co5O16,mp-1175535,P-1,4.248642984641917,0.11912681687500015,0.0,2.74696848,False,True
4663,Li9Mn2Co5O16,mp-1176058,P1,4.210053959058249,0.09831636500000052,0.6199999999999997,3.33227371,False,True
4664,Li3VO3F2,mp-850210,Cc,2.5110541884517663,0.07470969861110976,3.2584,-1.15234053,False,True
4665,Li7Bi(BO4)2,mp-768747,C2/m,3.7994069349099457,0.09817878402777147,2.1430000000000002,1.68108583,False,True
4666,Li3MnCoO5,mp-1174235,P1,4.003818161038495,0.0880192264999895,0.32010000000000005,3.16874899,False,True
4667,Li9Mn2Co5O16,mp-1176030,P1,4.200623506213865,0.09078547125000025,0.0,2.85962432,False,True
4668,Li11V6O5F19,mp-779345,P1,3.0303779369928217,0.07845816826221075,0.6938,2.27386208,False,True
4669,Li13Mn8O24,mp-758698,P-1,3.672201799088798,0.06424167093333288,0.0,1.92913248,False,True
4670,Li3BrO,mp-28593,Pm-3m,3.1482888927730746,0.03706398000000011,4.277500000000001,1.07549235,False,True
4671,Li2FeP2O7,mp-1644021,P-1,2.7544834697265523,0.033235832013859046,4.3546,1.10476584,False,True
4672,Li4Cu(PO3)6,mp-760683,P1,2.732788509691701,0.046289362672420786,0.8013000000000001,1.26800911,False,True
4673,Li4MnCo2O7,mp-1174799,Cm,4.099293240516481,0.11158352321428477,0.0,2.77280821,False,True
4674,Li2VPHO5,mp-777547,P-1,2.8553829908268993,0.07884727021808402,1.4109999999999996,4.9458439,True,True
4675,Li6MnSb3(PO4)6,mp-1176991,P1,3.4682190744928714,0.08851965968751152,0.2319,2.92831847,False,True
4676,Li2Mn(Si2O5)2,mp-831244,P2_12_12_1,2.2897189206607536,0.07252697529411734,3.6361,0.70682106,True,True
4677,Li3Fe2(PO5)2,mp-766138,Cmce,3.264805994056694,0.10496959753676549,0.0,1.53798944,False,True
4678,Li14MgCo13O28,mp-769537,P-1,4.805378402424559,0.00787649758928577,0.0,2.93714698,False,True
4679,Li3Fe(PO3)8,mp-26049,C2,2.6760035548740717,0.05953238637730962,2.6742,0.37354912,False,True
4680,Li9Mn2Co5O16,mp-1176023,P1,4.195780811403681,0.10831268343750011,0.11349999999999971,2.69373458,False,True
4681,Li5V3P8O29,mp-765199,P1,2.547414799512419,0.03702344864814755,0.7607999999999999,0.60097793,False,True
4682,Li3MnV(PO4)3,mp-1177579,P1,2.922738813071328,0.029026137062497348,0.33130000000000015,1.80027292,False,True
4683,Li3FePCO7,mp-755283,Pmn2_1,2.6731621008251136,0.0732904211538461,3.9590999999999994,1.6224302,False,True
4684,Li9Mn2Co5O16,mp-1175859,P1,4.244400714368082,0.0779328571875002,0.3529,3.34870874,False,True
4685,Li9Co7O16,mp-1175428,P-1,4.38480391584233,0.045590106562499955,0.7323999999999997,3.19415751,False,True
4686,Li7Mn4CoO12,mp-1175206,P1,3.9632185421731845,0.03702763385416574,0.8239000000000001,3.61398832,False,True
4687,Li9Mn2Co5O16,mp-1176183,P1,4.171456484153388,0.12341700906250086,0.0,2.483343,False,True
4688,Li2V(Si2O5)3,mp-767777,Cc,2.3936236660229544,0.0888379593750015,2.041,1.26705424,False,True
4689,Li9Mn7O16,mp-1100492,C2/m,3.921920417732706,0.024584836406249977,0.9062999999999999,2.73949511,False,True
4690,Cs2Li4UO6,mp-1213708,P-3m1,5.22590905034036,0.13544905307692456,2.1195999999999997,2.08778129,False,True
4691,Li5Co3O8,mp-1174012,C2/m,4.110405868274582,0.08521496624999791,0.0,2.46463556,False,True
4692,Li6CoNiP2(CO7)2,mp-756691,Pm,2.893382747394738,0.038172156346155006,2.3594999999999997,1.75290854,False,True
4693,Li3Fe2(PO3)7,mp-759417,P-1,2.713894898405024,0.08428724603535187,4.0258,5.45256922,False,True
4694,Li9Mn7O16,mp-1100531,P-1,3.92787901905092,0.035170448906249874,0.0,3.0911071,False,True
4695,Li4V3P8O29,mp-1177383,P1,2.5192221157615027,0.047137277878785966,0.8007000000000001,0.26093501,False,True
4696,Li5FeO4,mp-780192,P1,2.5052059425529394,0.04704792450000017,2.5873,0.49319356,False,True
4697,NaLi5Mn2P2(CO7)2,mp-772444,Pc,2.753412251965594,0.05039804243589252,3.2920000000000003,2.06558136,False,True
4698,Li3MnPCO7,mp-766708,P1,2.7315143834913163,0.05828891769230804,3.4721,2.21380772,False,True
4699,Li9Mn7O16,mp-1100477,P2/m,3.917295605603388,0.04154289265625,1.1732,3.85191652,False,True
4700,Li5V2P5O18,mp-935669,P-1,2.998511946873939,2.7783692287777475,0.0,3.57499,False,True
4701,Li7Mn2(CoO4)3,mp-1175151,Cm,4.022927652032431,0.11880065833333386,0.10999999999999988,2.81736218,False,True
4702,Li3Co2O5,mp-1174281,C2/m,4.03008431397901,0.16298745700000072,0.0,1.76951613,False,True
4703,Li9Mn2Co5O16,mp-1176088,P1,4.156438686912832,0.10793591437500005,0.045299999999999674,2.61549153,False,True
4704,Li3Cu2(SO4)3,mp-778458,R-3,2.9482702336391835,0.04574384856249569,0.0,2.07456672,False,True
4705,Li9Mn2Co5O16,mp-1176153,P1,4.125614980607823,0.12494918500000018,0.10679999999999978,2.637743,False,True
4706,Li7Mn2(CoO4)3,mp-1175152,Cm,4.024822970638338,0.1147364675000011,0.4577,2.58707325,False,True
4707,Na3Li3Fe2P2(CO7)2,mp-755665,P1,2.8408533304559636,0.02569447692307847,3.8263999999999996,1.8575044,True,True
4708,Li9V3P8O29,mp-760818,P1,2.6158820968694734,0.01918562365643428,0.0032000000000000917,3.71665899,False,True
4709,Li7VO5F,mp-764775,P1,2.5978476791994174,0.06658797464285637,1.7652,1.53268102,False,True
4710,Li3MnV(PO4)3,mp-768560,P1,2.8139486744736697,0.04751147018749702,0.7475999999999998,1.37846587,False,True
4711,Li7Mn3(WO8)2,mp-771313,Cm,4.789664138669778,0.07718723169047692,0.07040000000000002,1.61426472,False,True
4712,Li9Mn2Co5O16,mp-1176171,P1,4.147691315527648,0.1200033965625007,0.0,2.70747275,False,True
4713,Li4MnCo2O7,mp-1174614,P1,4.181432647122557,0.06602719071428442,1.1056,2.33397197,False,True
4714,Li7Mn2(CoO4)3,mp-1174500,C2/m,4.055200723330433,0.11282741958333364,0.0,2.7128028,False,True
4715,Li15V6(P8O29)2,mp-1178192,P1,2.6153088380614014,0.014503198067967737,1.0735,1.30435895,False,True
4716,Li3Bi(PO4)2,mp-759624,P2_1/c,4.3454673498610505,0.07596484571428519,3.6108,2.63427838,False,True
4717,Li3Ho3(TeO6)2,mp-1211542,Ia-3d,6.742721297692856,0.0,3.5705,6.00932891,True,True
4718,Li3BiO3,mp-753795,P2_13,5.016437770747357,0.09261084464285663,2.7248,2.00079999,False,True
4719,Li4MnCo2O7,mp-1174803,Cm,4.126724359019704,0.09733860285714169,0.0,2.9311516,False,True
4720,Li4MnP6(H4O11)2,mp-779351,P-1,2.397160249040751,0.05683740321137076,4.2129,1.19291704,True,True
4721,Li3Mn2O5,mp-1173962,P-1,3.8660803754080866,0.021640223000000347,1.0029000000000003,3.64322127,False,True
4722,Li15(FeO6)2,mp-758099,P1,2.6432818552209296,0.051453962586206714,0.019299999999999984,0.80825642,False,True
4723,Li3NiAsCO7,mp-771015,P2_1/m,3.269655681829169,0.04733123230769376,2.9590999999999994,1.32604049,False,True
4724,Li9Mn2Co5O16,mp-1100741,C2/m,4.192398681863489,0.0986267859375003,0.0,2.76828355,False,True
4725,Li9Mn2Co5O16,mp-1175657,P-1,4.110405361115555,0.12313085968750048,0.03080000000000016,2.61633302,False,True
4726,Li4MnCo2O7,mp-1174727,P1,4.091664480955425,0.10202410928571215,0.11880000000000024,2.72377284,False,True
4727,Li7Mn2(CoO4)3,mp-1648338,P1,4.045446292433537,0.11364311500000124,0.49179999999999957,2.63923797,False,True
4728,Li7Mn4CoO12,mp-1175153,P-1,3.993404907077364,0.03709445260416544,0.7410000000000001,3.0499649,False,True
4729,Li2NiP2O7,mp-753547,P-1,3.1314244603332915,0.03684968263888688,3.8381,1.82868814,True,True
4730,Li2MnPO4F,mp-759220,Pbcn,3.0964284842961063,0.0413202061111102,3.3419999999999996,1.92059563,True,True
4731,Li7V3P8O29,mp-757380,Cc,2.5959368428560348,0.022036226945920667,0.8511,1.47016202,False,True
4732,Li4MnCo2O7,mp-1174810,Cm,4.101163700037851,0.10804059321428472,0.1488999999999998,2.61618382,False,True
4733,Li9Mn2Co5O16,mp-1176237,P1,4.165199961802657,0.24270376531250015,0.0,2.8019509,False,True
4734,Li4MnCo2O7,mp-1174441,P-1,4.107932585065162,0.09037393428571239,0.4605999999999999,2.36174761,False,True
4735,Li4Cu(PO4)2,mp-26248,P1,2.8041875002577386,0.05314938233333333,0.0,1.25861001,False,True
4736,Li9Sb3P8O29,mp-776589,P-3c1,2.967308131677257,0.055663904268710596,3.8270000000000004,2.10392101,False,True
4737,Li7V3P8O29,mp-850667,P1,2.581431884831558,0.020543708648047776,0.7224999999999999,1.24957146,False,True
4738,Li9Mn2Co5O16,mp-1175996,P1,4.1801101952323085,0.09857444250000036,0.45009999999999994,2.60833748,False,True
4739,Li7Mn5O12,mp-1644867,P-1,3.876181055178397,0.029151973958333244,0.7704,3.59115373,False,True
4740,Li5V3P8O29,mp-765219,P1,2.550465706945095,0.035806549759258566,0.18989999999999996,1.77074022,False,True
4741,Li3RuO4,mp-37692,P2/c,4.3904327866319655,0.0,0.0,2.85933162,False,True
4742,Li3V2(O2F)2,mp-761181,P1,3.2051558314718824,0.08589516329544367,0.6794,1.20257712,False,True
4743,K2Li14Pb3O14,mp-504806,Immm,4.377970212066324,0.0,2.0095,1.08314303,False,True
4744,Li4V3P8O29,mp-851247,P1,2.5030379117571595,0.04782352549242308,0.7025,0.37305843,False,True
4745,Li7Mn4CoO12,mp-1977420,P-1,3.94502500853339,0.06423662552083176,0.20860000000000012,2.83176097,False,True
4746,Li7V5O12,mp-776654,C2,3.76977615412544,0.0347239379166675,0.8826,3.51056259,False,True
4747,NaLi5Fe2P2(CO7)2,mp-772237,P2_1,2.837461920253643,0.04110570307692374,4.0463,1.97540681,True,True
4748,Li9Mn2Co5O16,mp-1175560,P1,4.267070663293488,0.07369288156250065,0.3588,2.85577225,False,True
4749,Li9Mn2Co5O16,mp-1100722,P2/m,4.154950637135153,0.13825543031250032,0.0,2.92646851,False,True
4750,Li4VO4F,mp-752971,P2_1,2.2420092726750727,0.06523658750000116,3.6834,-1.22827712,True,True
4751,Li9Mn2Co5O16,mp-1175568,P1,4.251688726582285,0.06849974875000076,0.5246,2.98540013,False,True
4752,Li5NiO4,mp-774500,Aea2,2.6697907134645344,0.031675914583330744,1.2241,0.79112776,False,True
4753,Li2CoO3,mp-1173889,C2/m,3.7869820341041613,0.09440246416666653,0.0,2.02661509,False,True
4754,Li3MnV(PO4)3,mp-777816,R3,2.8961491612527945,0.045458559187497194,0.0,1.69829129,False,True
4755,Li3Co2O5,mp-1173994,P-1,4.0737622409905985,0.09274889400000053,0.2913999999999999,2.15974635,False,True
4756,Li5Mn2CoO8,mp-1174375,P1,3.9326176195260536,0.04057243500000052,1.5785999999999998,2.04563251,False,True
4757,Li5NiOF5,mp-1277814,Pc,2.5535596586235774,0.07370574624999993,2.0076,0.02191328,False,True
4758,Li2VBO4,mp-754873,Pmn2_1,3.0745074655178746,0.10088419624999911,1.7537000000000003,2.88684811,False,True
4759,Li3MnP2O9,mp-867845,P1,2.6897793834043755,0.04987418577777625,0.0,0.28461911,False,True
4760,Li7Mn3(SiO6)2,mp-767011,C2/m,3.670946214706977,0.0956358661979202,1.2906000000000004,3.85304844,False,True
4761,Li2CuPO4,mp-773146,P1,3.379118470666977,0.06546959406250075,0.9036999999999997,4.17484883,True,True
4762,Li3Al2CrO6,mp-861240,C2/m,3.5707354192672676,0.01564063541666183,3.5086000000000004,3.82259283,False,True
4763,Li10Ge(PO6)2,mp-721249,P1,2.450091022833912,0.09493914739999809,4.4921,0.28597007,False,True
4764,Li7Mn5O12,mp-1175343,P-1,3.8522886806879004,0.03269841395833328,0.4948999999999999,3.41035495,False,True
4765,Li5Mn3O8,mp-1174540,C2/m,3.766332104822796,0.05545279406250003,0.9575999999999998,2.69001788,False,True
4766,Li2FeSiO4,mp-758209,Pnma,3.063633171403985,0.005195829062500046,3.9211,2.04433231,False,True
4767,Li6Mn2P(CO4)4,mp-771904,Fd-3,2.6521002612595574,0.0931905104310431,0.0,1.12915498,False,True
4768,Li9(FeO4)2,mp-759144,Pc,2.4872052715008386,0.0886670957894733,0.0,-0.05235713,False,True
4769,Li9Mn2Co5O16,mp-1175722,P1,4.1999346647040525,0.0907521668750002,0.5246,2.58083354,False,True
4770,Li2LuPCO7,mp-755876,P2_1/m,3.8967012017075726,0.0861921299999997,4.7648,0.63306685,True,True
4771,Li4Mn2OF7,mp-753323,P1,2.984652397752035,0.06052449758928269,0.9575,0.43220138,True,True
4772,Li9Co7O16,mp-1175517,P-1,4.20243640813168,0.09520725156249998,0.4319000000000002,2.05781323,False,True
4773,Li7Mn2(CoO4)3,mp-1174937,P1,4.148729239637067,0.05789669208333326,0.7601999999999998,3.29766805,False,True
4774,Li3VP3O11,mp-798859,P-1,2.6993555757970036,3.4596816091435176,0.0,3.71562437,False,True
4775,Li3Mn(BO2)5,mp-768488,P-1,2.4459847180366516,0.04590897828946172,3.781,5.05512859,False,True
4776,Li5IO6,mp-1211142,P3_112,4.056541683626441,0.0,2.5906999999999996,4.81650942,False,True
4777,Li2CoSiO4,mp-772320,Pca2_1,3.0459165482275767,0.06996187374999341,2.6264999999999996,2.02485184,False,True
4778,Li9Mn2Co5O16,mp-1176244,P1,4.155587224117387,0.1069279968750001,0.06780000000000008,2.65446435,False,True
4779,Li6MnV3(PO4)6,mp-887412,C2,2.9420451135924384,0.0523276678906095,0.5895000000000001,2.14061479,False,True
4780,Li5FeO4,mp-19511,Pbca,2.730172537136709,0.0,3.0546,3.27636062,True,True
4781,Li9Co7O16,mp-1175394,P2/m,4.268703073508822,0.06030289999999994,0.7616999999999998,2.18831855,False,True
4782,Li6Fe3O8,mp-1177119,P-1,3.6427103822917974,0.1115121244852979,0.0,1.9039069,False,True
4783,Li3Ni(OF)2,mp-761272,P2/c,3.5318256485472213,0.08219335197916688,0.3054000000000001,1.98163974,False,True
4784,Li32Mn13Cr3O48,mp-778088,P1,3.707514634907156,0.014721613802075595,1.2155,1.92125127,False,True
4785,Li9Mn2Co5O16,mp-1176012,P1,4.164190010541327,0.1096686531250004,0.06309999999999993,2.64373843,False,True
4786,Li2CoP2O7,mp-757831,C2/c,2.9006140166611294,0.061331278055535954,2.3733000000000004,1.1647305,False,True
4787,Li2MoP4O13,mp-1101555,P-1,2.5107214539990093,0.012514602666650276,1.8745999999999998,0.09196713,False,True
4788,Li7V3P8O29,mp-1176872,P1,2.584985801493473,0.022025052052303984,0.044499999999999984,1.65613666,False,True
4789,Li6Mn3V(PO4)6,mp-1177040,P1,2.9635932288847995,0.020795322000007666,0.009700000000000042,2.29708287,False,True
4790,Li3Fe2P2(CO7)2,mp-1177718,Pc,2.6571718300636546,0.04612021249999909,0.0,0.1732863,False,True
4791,Li8(CoO2)5,mp-1640123,P-1,3.314920745888057,0.049203057201086864,0.8665999999999998,2.22437083,False,True
4792,Li12CrCo3P4(CO7)4,mp-766700,Pm,2.8313558338672467,0.053589665763216665,1.2044000000000001,3.27308132,True,True
4793,Li3FeAsCO7,mp-770939,P2_1/m,3.1316197065711915,0.04837611173076706,2.3061000000000003,1.6612906,False,True
4794,Li6CrFeP2(CO7)2,mp-756846,Pm,2.7319563934130304,0.0571363606009605,2.0677,2.95163887,False,True
4795,Li2NiO3,mp-556550,C2/m,4.25723064034632,0.0,1.1037,2.36381262,False,True
4796,Li4CrO5,mp-772571,P-1,3.069831572770104,0.05940784216666639,1.2736,1.50697328,False,True
4797,Li3CrSi2O7,mp-758792,P6_3,2.8988333902057355,0.043686223269229885,2.715,1.93372867,False,True
4798,Li3Fe2(PO4)3,mp-585226,C2/c,3.034044640890636,0.029484560500005585,2.1715,1.36136583,False,True
4799,Li9Mn2Co5O16,mp-1175748,C2,4.189581752663087,0.07394988437500061,1.2532999999999999,2.27990209,False,True
4800,Li9Mn2Co5O16,mp-1100635,Cm,4.158334969141524,0.2545925153125008,0.0,2.8246083,False,True
4801,Li4V3P8O29,mp-759906,P1,2.539580786257635,0.0527045515151503,0.14690000000000003,0.67872299,False,True
4802,Li3V2(O2F)2,mp-1572353,P2_1/m,3.0800633528073242,0.05279857943180666,1.3573000000000002,1.45257659,False,True
4803,Li4Co2Si3O10,mp-757921,C2/c,3.0606480334916357,0.037665779473684324,2.6211,2.28564105,False,True
4804,Li9Mn2Co5O16,mp-1100572,Pm,4.147729420711992,0.11210375250000038,0.0,2.62101308,False,True
4805,Li2VSiCO7,mp-770348,P2_1,2.644733675285404,0.06275654125001129,1.8635000000000002,0.98354994,False,True
4806,Li3SiSnBO7,mp-770756,P2_1/m,3.3559797618736846,0.058515726730770545,3.2406999999999995,1.77333151,True,True
4807,Rb2Li4UO6,mp-1209477,P-3m1,4.672328835135602,0.12858915615384703,2.1266,1.47158482,False,True
4808,Li2Sn(PO3)4,mp-26271,P2_1/c,3.0250608501151492,0.020036246776319544,3.8013,2.0729962,False,True
4809,Li3La2H6(N3O10)3,mp-722330,P2_13,2.436191718501084,0.0014921013875071054,3.5098,-0.78033885,True,True
4810,Li4Cr3O8,mp-771884,R-3m,3.4686578688233873,0.08445123244444641,0.24109999999999987,1.85769067,True,True
4811,Li2VO2F,mp-763051,P-3m1,3.4758422273015537,0.004510747916662616,1.408,2.99231632,False,True
4812,Li3Co2(SiO4)2,mp-767320,P1,3.010376905320934,0.08645251599999959,0.3883000000000001,1.66650716,False,True
4813,Li9V2P4HO18,mp-849392,Ima2,2.7062235077488164,0.08872239138482119,0.40470000000000006,3.40674426,False,True
4814,Li7Co5O12,mp-1174374,P-1,4.2512833442146825,0.06399550791666453,0.31099999999999994,2.47653429,False,True
4815,Li7Mn2(CoO4)3,mp-1175106,Pm,4.097347559459836,0.17096154750000014,0.0,2.91428832,False,True
4816,Li3Cr(PO4)2,mp-781009,P1,2.744264134740646,0.0783504241071391,2.8064,1.3710054,False,True
4817,Li3SbO4,mp-5769,P2/c,4.583776086155817,0.0,3.0560000000000005,2.6938652,True,True
4818,Li7Mn2(CoO4)3,mp-1175036,P1,4.05725552258727,0.10747037833333462,0.0,2.71059151,False,True
4819,Li3MnV(PO4)3,mp-777866,P1,2.8774387572924427,0.07514841681249695,0.4366000000000001,2.1646837,False,True
4820,Li2Fe(CO3)2,mp-757940,P2_1/c,2.222547789511682,0.09724133590909112,3.1128,0.01635245,False,True
4821,Li3VSiCO7,mp-768601,P2_1/m,2.7069778161121465,0.03403948812500257,1.7442000000000002,2.18965146,False,True
4822,Li3MnV(PO4)3,mp-775639,Pc,2.9895185992489743,0.07117053181249666,0.0,2.5162479,False,True
4823,Li5V3P8O29,mp-760076,P1,2.536248846772908,0.037060706981479896,0.6733000000000001,0.7967483,False,True
4824,Li3MnCoO5,mp-1174097,P-1,3.9809980734945722,0.07434554849998953,0.9660000000000002,3.35501435,False,True
4825,Li5Bi2P5O18,mp-26377,P-1,4.125223792489964,0.02283941463888617,3.9139999999999997,2.13191507,True,True