,formula,mp-id,crystal system,density,energy above hull,band gap,efermi,is gap direct,theoretical
2511,Li5MnO4,mp-755825,Pmn2_1,2.657822920096974,0.06233148199999761,1.2246,1.07318624,False,True
2512,Li2CrSiO4,mp-752524,Pmn2_1,3.0369601999316433,0.05835904979166262,1.0747000000000004,3.27841857,False,True
2513,Li6V3P8O29,mp-772407,P1,2.587383477712938,0.022533481041659087,1.1338,0.83197643,False,True
2514,Li6V2B4SO16,mp-772590,Fd-3,2.6337823331624124,0.08334021916665968,1.9200000000000002,1.03054136,False,True
2515,Li3Ti(PO4)2,mp-758151,P2_1/c,3.0126350490187215,0.07536656677380815,0.0,5.30851638,False,True
2516,Li2SiNiO4,mp-756200,Pmn2_1,3.2819414388385506,0.01571905843749999,3.0164999999999997,1.98572153,False,True
2517,Li3MnCoO5,mp-1174102,C2/m,4.002224875326579,0.06352349499998944,1.049,3.45222678,False,True
2518,Li2VOF3,mp-850895,Pc,3.0534478807500656,0.06925071910715719,1.3650000000000002,1.17741365,False,True
2519,Li9Mn7O16,mp-1100500,C2/m,3.920489071485892,0.04969820921875012,0.0,3.05744593,False,True
2520,Li3Co2(CO3)4,mp-752864,P1,2.6529305387386333,0.04540283831349878,0.673,0.90149922,True,True
2521,Li3Mn(PO4)2,mp-863426,P2_1/c,3.07136508541497,0.01775506821433659,0.976,2.09756601,False,True
2522,Li2MnP2O7,mp-757717,C2/c,2.9650811354750983,0.06216214124999908,3.7511,1.79257743,False,True
2523,Li5Fe4(Si3O10)2,mp-1177108,P1,2.8570671290465355,0.04739745314287358,1.4691999999999998,3.43853316,False,True
2524,Li6Mn5O12,mp-764759,C2,3.9698468429276836,0.045840206521745586,0.0,2.61563276,False,True
2525,Li3MnPCO7,mp-766616,P2_1/c,2.802840238782836,0.06340910230769303,4.1018,1.68220136,True,True
2526,Li3Mn2P5O16,mp-26187,P2/c,2.729430793022818,0.014541953782065242,3.9853000000000005,1.60584077,False,True
2527,Li5TaO5,mp-755013,C2/m,4.632917139886629,0.0,3.4293000000000005,0.71831651,False,True
2528,Li5MnO3F,mp-759969,C2/m,2.3729372691030086,0.07297107958333182,0.6309999999999998,2.88250081,False,True
2529,Li2CrPO4F,mp-770894,Pnma,3.093253098146834,0.013983521736117943,1.9863999999999997,3.21220661,True,True
2530,Li2CoBO4,mp-779364,Pnma,3.3358055588878095,0.0823151627083405,1.1026,1.39629056,False,True
2531,Li9Mn7O16,mp-1100498,C2/m,3.91492994786545,0.05067953015625015,0.0,3.07490153,False,True
2532,Li9Co7O16,mp-1175435,P-1,4.226945333059434,0.10014311124999953,0.22599999999999998,2.4162123,True,True
2533,Li2SiNiO4,mp-1296460,P1,3.1137554763242954,0.03264811156249969,3.7673000000000005,1.6864526,False,True
2534,Li6AlFeO6,mp-777878,P-31c,2.9559378067961157,0.09527074428571591,2.452,4.42616035,False,True
2535,Li5NiOF5,mp-1289063,Cc,2.554537684938165,0.07372643874999962,2.0063,0.03097033,False,True
2536,Li7Mn5O12,mp-1175378,C2/m,3.872997773349342,0.06462595604166665,0.2817000000000003,3.0774901,False,True
2537,Li2Fe(SiO3)2,mp-758910,Pmn2_1,3.017413394861681,0.09154110689394024,2.8795,3.10016497,False,True
2538,Li6V(BO3)3,mp-770782,P2_1/c,2.4549276888964138,0.06538604184209529,0.0,3.43764893,False,True
2539,Li7Mn4CoO12,mp-1175271,P2/m,3.9431183502988154,0.06339507885416484,0.11739999999999995,2.79215033,False,True
2540,Li5Mn3Cu(PO4)4,mp-1177150,P1,3.3084203254755957,0.056636543965522534,1.4238,5.72469233,False,True
2541,Li3BiO4,mp-769004,I-43m,5.658703656042366,0.02818146375000019,0.9495,2.19663989,False,True
2542,Li2CoH8(CO5)2,mp-770604,P2_1/c,2.1348821541490417,0.08774679891304515,2.9158000000000004,0.08800786,False,True
2543,Li4H7RhS3O13,mp-1237191,R3,2.525569803319865,0.3778985801517898,0.0,2.53600662,False,True
2544,Li2FeBO4,mp-779305,Pna2_1,3.103436972413269,0.03664732187499986,2.4344,1.27948192,False,True
2545,Li2MnOF3,mp-753603,Pmc2_1,3.1633713204324208,0.07614030767857116,1.0222000000000002,0.52449389,False,True
2546,Li4FeP6(HO2)12,mp-1177405,P-1,2.1450960037539057,0.048641801781913685,4.1488,0.39577288,False,True
2547,Li9Mn2Co5O16,mp-1175733,P-1,4.099310965919975,0.1337540018750003,0.0,2.28093258,False,True
2548,Li3Fe2P2(CO7)2,mp-768593,P-1,2.6443142508655355,0.04179605815217258,0.013800000000000007,0.12220215,False,True
2549,Li2NbOF5,mp-756639,P3_1,3.543242960477418,0.00976962717592933,3.6859,-1.16396554,False,True
2550,Li6V3P8O29,mp-772092,P1,2.5895653428125525,0.02378405321557242,0.009700000000000042,1.30046732,False,True
2551,Li2MnSiO4,mp-780734,P3_121,3.075327090088642,0.05652690385416559,2.6138,2.28734026,False,True
2552,Li9Mn2Co5O16,mp-1175593,P1,4.252266126960829,0.07384703218750044,0.5366,2.6717288,False,True
2553,Li10Mn3Cr5O16,mp-760073,P1,4.008800360734483,0.08384864936274905,0.0,3.98894393,False,True
2554,Li2V(CO3)2,mp-1638861,P2_1,2.295395736873795,0.08876564894886574,3.1574,1.46026947,False,True
2555,Li4FeOF4,mp-754592,I4/m,3.148025571064944,0.06747396749999979,3.8532,1.01183646,False,True
2556,Li9Mn2Co5O16,mp-1176226,P1,4.247014053359131,0.12453758593750042,0.5449999999999999,2.88056629,True,True
2557,Li7Mn2(CoO4)3,mp-1175107,Pm,4.019594708084958,0.0979267329166662,0.0,2.19387726,False,True
2558,Li8FeO5F,mp-776549,P6_3,2.3242582918896515,0.028506134333332156,2.6395999999999997,0.29726979,True,True
2559,Li3MnSiBO7,mp-755970,P2_1/m,2.844175916287987,0.059736351142851696,1.2309,1.04897163,False,True
2560,Li4MnCo2O7,mp-1174825,Cm,4.107112125819895,0.0865781246428563,0.355,3.04658931,False,True
2561,Li5Mn2CoO8,mp-1174343,P2/m,3.8256575237846002,0.10126959250000045,0.0,2.61694852,False,True
2562,Li4MnCo2O7,mp-1174710,P1,4.1533058711636,0.10821455642857014,0.22049999999999992,3.07719711,False,True
2563,Li7Mn2(CoO4)3,mp-1175082,P1,4.066503675521027,0.14528859625000035,0.0,2.69374908,False,True
2564,Li6V3P8O29,mp-771835,P1,2.581112625720476,0.024225347889485604,0.7957000000000001,0.9792894,False,True
2565,Li9Mn7O16,mp-1100519,P-1,3.910369639885058,0.029274998906250183,0.6008,2.94553105,False,True
2566,Li2CrP2O7,mp-26965,C2/c,2.5073288633782553,0.0,3.7041000000000004,1.20828321,True,True
2567,Li3MnV(PO4)3,mp-1177600,P1,2.9081066391750876,0.059421662812496834,0.23190000000000022,1.94004353,False,True
2568,Li6TiNi3(PO4)6,mp-850943,P1,2.962721349250702,0.083528706520835,0.0,1.0951476,False,True
2569,Li7Co5O12,mp-1651230,P1,4.307735184046314,0.06530735249999697,0.0956999999999999,2.55640454,False,True
2570,Li8VCo3(PO4)6,mp-760152,R3,2.961418703966875,0.2768360504166667,2.1978999999999997,2.41394356,True,True
2571,Li7Mn5O12,mp-1175365,C2/m,3.8687257040342455,0.04512975937499952,0.0,3.40088702,False,True
2572,Li2MnO2F,mp-753900,Cc,3.5428657696339076,0.08875153833332838,0.7514000000000003,2.1566568,False,True
2573,Li7Mn4CoO12,mp-1175309,Pm,3.8615781834724485,0.07089371510416598,0.4546000000000001,3.29928848,False,True
2574,Li5VCr3O8,mp-760232,R-3m,3.869397930612942,0.09627914735294052,0.6195000000000004,4.91752908,True,True
2575,Li3CrPCO7,mp-766695,P2_1/c,2.731223254135003,0.08479422925481028,2.4109,4.78315174,False,True
2576,Li8Mn(O2F)2,mp-763440,P-1,2.462649182334559,0.06708829133333438,2.6852,1.52558675,True,True
2577,Li9Mn2Co5O16,mp-1100569,Pm,4.13668954475472,0.11867571531250043,0.0,2.95490915,False,True
2578,Li3V2BP4H2O17,mp-1200046,P2_1/c,2.799747605754435,0.0065741235571694645,0.012799999999999478,4.02276458,False,True
2579,Li7Mn2(CoO4)3,mp-1175068,P1,4.029271760526702,0.12477077375000079,0.0,2.59047257,False,True
2580,Li2V(PO4)2,mp-705365,P2_1,3.025137494635094,0.05576199506409374,1.0935000000000001,1.71267412,False,True
2581,Li2CrPHO5,mp-779314,P-1,2.8561785531718735,0.08119535643749565,2.4368,2.68197987,False,True
2582,Li9Mn2Co5O16,mp-1100721,P2/m,4.176520061472265,0.10324795906250017,0.3933,2.92601469,False,True
2583,Li3V2(PO4)3,mp-32530,P2/c,2.8835997267875335,0.03853630162502686,1.9588,2.2002463,True,True
2584,Li9Mn2Co5O16,mp-1375399,P1,4.170254313457321,1.1108084531250002,0.0,3.02462994,False,True
2585,Li7V3Ni(PO4)6,mp-760800,R3,2.8057389019718473,0.0923515503658594,0.0,3.64783797,False,True
2586,Li2MoO3,mp-35975,C2/m,4.872652840578405,0.0,1.6018,3.34527141,False,True
2587,Li4MnCo2O7,mp-1174836,Cm,4.1299725283855295,0.09464597071428393,0.0,2.43089648,False,True
2588,Li3V(BO3)2,mp-770343,P2_1/c,2.792099044491731,0.08636580625000345,2.4333,4.50825624,False,True
2589,Li2CrO2,mp-754913,Cmc2_1,3.102766073432044,0.1200784309999996,1.4981,2.37702039,False,True
2590,Li2Fe(Si2O5)2,mp-759584,P2_1/m,2.5176572272154543,0.0768798539705875,3.1715,1.77178063,False,True
2591,Li5V3P8O29,mp-759298,Cc,2.553169719936331,0.035038404648148,1.1766,1.59793861,False,True
2592,Li4MnSi2O7,mp-752430,Cc,2.7687800158115072,0.010976736964288136,3.653,1.74557903,False,True
2593,Li7Mn4CoO12,mp-1175253,P1,3.9751458625496805,0.06077177093749775,0.6326,2.79440581,False,True
2594,Li7Mn4CoO12,mp-1175301,P1,3.8928500078899915,0.08380715677083206,0.1695000000000002,2.86788916,False,True
2595,Li5FeO3F,mp-1177103,Pm,2.632436024153606,0.2730031569999998,2.4707,0.82133269,False,True
2596,Li9Mn2Co5O16,mp-1175716,C2,4.178918916433478,0.07377524968750038,1.3691999999999998,2.20948922,False,True
2597,Li9Mn2Co5O16,mp-1175724,P1,4.2585372671209045,0.05482857500000016,1.2694999999999999,3.63610215,False,True
2598,Li9Mn2Co5O16,mp-1100733,C2/m,4.143748865688571,0.1401869171875001,0.0,2.42377827,False,True
2599,KLi3TiO4,mp-1211546,P-1,2.5723380792808364,0.0,4.6824,4.55711603,False,True
2600,Li19Mn4P8O35F,mp-1178065,P1,2.7935821531266165,0.05900961369402946,0.48009999999999975,2.53526804,True,True
2601,Li8CoO5F,mp-1305320,P1,2.6543966367047127,0.09061215999999384,0.0,1.23367442,False,True
2602,Li2FeP2O7,mp-755006,Imma,2.54149086325404,0.042392985763858526,3.9051,1.12446692,False,True
2603,Li6V3P8O29,mp-1176926,P1,2.5684484046875804,0.027205575715572472,0.0,2.32536282,False,True
2604,Li2FePCO7,mp-25457,P2_1/m,2.6811661902134105,0.01653311218751874,2.1712,0.67984463,False,True
2605,Li5MnO3F,mp-763434,P1,2.433458454165108,0.0741674968333319,2.3167999999999997,0.77546718,False,True
2606,Li2MnP2O7,mp-850195,P-42_1m,2.5653753074185937,0.07851393874999957,3.9831,0.95377105,False,True
2607,Li4Co3O7,mp-1174228,P-1,4.240664198544716,0.08819830964285469,0.0036999999999998145,2.6541286,False,True
2608,Li7Mn4CoO12,mp-1641094,P-1,4.0079194664543705,0.05954262656249831,0.0,3.0390151,False,True
2609,Li7V4(CO3)10,mp-1176889,P2_1,2.343751582179766,0.09519531245098634,1.2185,0.14110345,False,True
2610,Li8Mn3Cr(PO4)6,mp-1176848,P1,2.852325028080623,0.031202724900797563,0.5567000000000002,1.73391488,False,True
2611,Li4AlCr3O8,mp-768851,P-1,3.916167574382553,0.013141635781242833,3.3975,6.67830675,False,True
2612,Li7Mn5O12,mp-1640196,P-1,3.8850868487903187,0.03316957833333323,0.46709999999999985,3.01498645,False,True
2613,Li9Mn2Co5O16,mp-1175705,P1,4.292955112963038,0.059264948125000494,0.6844999999999999,3.311668,False,True
2614,Li4MnCo2O7,mp-1174610,P1,4.143533230359206,0.09335405392857066,0.6069,3.2792943,False,True
2615,Li9Co7O16,mp-1175379,C2/m,4.312313292491791,0.05002877468750011,0.9235000000000002,2.15573499,False,True
2616,Li3Fe2(PO4)3,mp-19430,R-3,2.9621012344283115,0.004864386750005778,2.1807,0.84511924,False,True
2617,Li3MnSiO5,mp-778997,Pna2_1,2.7980851054739575,0.07822549062499728,0.0,1.43250932,False,True
2618,Li3Fe2(CO3)4,mp-753336,P1,2.487165548868777,0.07341940595238672,1.7107,0.38013346,False,True
2619,Li2WO12,mp-1212077,P2_1/c,2.920255606796471,0.5422503681555568,0.01770000000000005,-0.88947709,False,True
2620,Li2Cr(CO3)2,mp-753778,P2_1/c,2.3094990183537236,0.22717505051136744,2.1929,1.45948495,False,True
2621,Li2AlVO4,mp-770519,Pna2_1,2.903430679611401,0.09054368124999979,1.9215000000000004,2.92132732,False,True
2622,Rb2Li3GaO4,mp-1209478,Ibam,3.754903714345519,0.0,3.5182,3.74070988,False,True
2623,Li7Co5O12,mp-1174439,P2/m,4.132718350725837,0.09227558458333096,0.0,2.29237657,False,True
2624,Li3Co2(CO3)4,mp-1640104,P1,2.497793859789087,0.03669179402778333,0.7432,-0.20973101,False,True
2625,Li6V3P8O29,mp-1176909,C2,2.605137993083931,0.024006890824268545,1.1723,1.9240713,False,True
2626,Li3VOF6,mp-759965,P2_12_12_1,3.061376502056651,0.07972183882575745,2.9678,-1.1168195,True,True
2627,Li24Mn7Cr5O36,mp-768841,P1,3.6592321125030005,0.03225549493055624,1.2372999999999998,1.89880204,False,True
2628,Li12Mn7V(PO4)12,mp-1178138,P1,2.966258813771881,0.015182477700012242,0.5092000000000001,1.73807326,True,True
2629,Li5Mn(CoO4)2,mp-1174089,P-1,3.964303057470134,0.06081520593749712,0.0,1.96058945,False,True
2630,Li3Mn2(SiO4)2,mp-1306442,P1,2.977026095473258,0.07881204136110131,1.0612000000000001,1.72397379,False,True
2631,Li2CrO2,mp-1272606,C2/m,3.0406468597946943,0.028562055000000086,1.1213,1.95630422,True,True
2632,Li4Bi2O5,mp-768988,Pnna,5.280736728630087,0.08721782477272821,2.7704,1.48866231,False,True
2633,Li4CoOF5,mp-754887,C2/m,2.905093267440842,0.059507230000000355,0.0,0.0627981,False,True
2634,Li6V2O5F2,mp-765630,P1,2.971994463445254,0.10224556233333182,1.2772999999999999,2.62332618,False,True
2635,Li3Ni(PO4)2,mp-26691,C2/m,3.194827085808505,0.06077269968749377,0.19850000000000012,2.56431451,False,True
2636,Li2FeSiO4,mp-757426,P2_1/c,2.87661562852208,0.07252289156250047,2.3447,1.61295066,False,True
2637,Li3Fe2(P2O7)2,mp-849506,P1,3.0169087567612722,0.03320498344205003,1.0356,2.08833705,False,True
2638,Li7Mn2(CoO4)3,mp-1174854,P-1,4.075084339447071,0.07510512458333363,1.2161,2.27868452,False,True
2639,Li8Fe(O2F)2,mp-759890,Cmc2_1,2.312848622589482,0.09379395733333329,2.9833,0.11458633,True,True
2640,Li9Mn2Co5O16,mp-1175732,P-1,4.241321123707143,0.06493874250000076,1.1225,2.4657849,False,True
2641,Li5Cr3FeO8,mp-800259,P-1,4.015409312971141,2.1495335345098097,0.0,2.86914773,False,True
2642,Li5Fe4(P2O7)4,mp-1177154,P1,3.0438982540332584,0.0523132681481524,1.5665999999999998,3.23568032,False,True
2643,Li4MnP2O9,mp-1177475,P2/c,2.7753262910001837,0.04047886796875133,1.3024999999999998,1.18255404,True,True
2644,Li3Fe2(PO4)3,mp-773158,C2,2.7246456670177506,0.08300056850000548,2.4012,0.70333588,False,True
2645,Li3V2(PO4)3,mp-694966,P2,2.4674008354744514,1.0259652497500271,0.8590000000000002,2.02466972,False,True
2646,Li9Mn2Co5O16,mp-1100728,P2/m,4.182750924337133,0.13118838531250088,0.0,2.9493855,False,True
2647,Li5Co3O8,mp-1174177,P-1,3.9869483660321516,0.07554697812499711,0.14349999999999974,2.03366818,False,True
2648,Li9Mn2Co5O16,mp-1370648,P-1,4.261774111787629,1.1905746628125007,0.0,3.49349473,False,True
2649,Li17Cr2O12,mp-754575,P1,2.6365841673146413,0.0679924558870999,0.4558,1.87271728,False,True
2650,Li9Mn7O16,mp-1100479,P2/m,3.920223970646001,0.04141558046875016,1.1753,3.82425111,False,True
2651,Li2VP4O13,mp-704203,P-1,2.4519939139556937,0.04583670916665916,1.8286,0.15927824,False,True
2652,Li8Mn(FeO4)3,mp-766973,P2,3.683973585660991,0.07269375770833353,0.0,1.93890197,False,True
2653,Li6FeO5F,mp-757357,P1,2.5714919509419705,0.08193302692307469,0.26750000000000007,0.44165061,False,True
2654,Li4V3P8O29,mp-1177387,Cc,2.5356430412902156,0.04529713640151378,1.1729,1.32687929,False,True
2655,Li2FeBO4,mp-754097,C222_1,3.0672604551366485,0.03767173531250023,2.1735,1.14502286,False,True
2656,Li9Mn2Co5O16,mp-1100756,Cm,4.197741991327979,0.08338403156250074,0.9255,2.29553411,False,True
2657,Li2MnAlO4,mp-770551,P2_1/c,3.2436330918035208,0.04980490843749941,0.7265000000000001,2.53951954,False,True
2658,Li3VOF5,mp-765358,Pc,2.942304439834428,0.02615684100000415,2.4926,-0.06307368,False,True
2659,Li3CrP2O9,mp-850889,P2_1,2.6274293288196606,0.08781082692857378,0.0,0.42483143,False,True
2660,Li4Fe3(SiO4)3,mp-777652,C2,3.087485411989596,0.11670945579545489,0.009800000000000253,3.09348587,False,True
2661,Li2MnO2F,mp-753913,C2/c,3.5246993701895586,0.09248977541666292,0.7469000000000001,2.29627158,False,True
2662,Li7(SnO3)4,mp-1222532,C2,4.7467612347461206,0.050716445710143,0.0,2.79805183,False,True
2663,Li6MnV3(PO4)6,mp-1176964,P1,2.931047790136588,0.052567933890609986,0.6358999999999999,2.08128771,False,True
2664,Li4V2SiGeO10,mp-772830,P-4m2,3.340163071209801,0.0043430932638823805,1.9746000000000001,2.01888986,False,True
2665,Li5FeO4,mp-770923,P2_1/c,2.4804799750727473,0.07137871150000041,2.6744,0.32532919,True,True
2666,Li2SiNiO4,mp-766583,Pnma,3.282170296389016,0.01761857187499949,2.9985,1.93817373,False,True
2667,Li3VBO5,mp-768849,Pna2_1,2.849166963775852,0.09292082999998996,1.5281999999999996,2.36352903,False,True
2668,Li2CuPO4,mp-753179,P2_1,3.1816264701758845,0.10485346531250084,1.9750000000000005,3.26458653,False,True
2669,Li4MnCo2O7,mp-1174721,P1,4.134035966541843,0.11149953821428404,0.06879999999999997,2.67870501,False,True
2670,Li3MnV(PO4)3,mp-1177542,P2_1,3.0149955579430694,0.0317460295624965,0.5447,1.93114334,False,True
2671,Li7VO5F,mp-799536,P1,2.585000812297426,0.7514566412499999,1.0364,1.73370963,False,True
2672,Li7Mn2(CoO4)3,mp-1175060,P1,4.112254705570842,0.09528214250000033,0.0,2.72804116,False,True
2673,Li7Mn(O2F)2,mp-766052,P1,2.4932189995967637,0.07545750392857009,1.6784000000000001,0.44189057,False,True
2674,Li3MnV(PO4)3,mp-829755,C2/c,3.2880633675015356,0.08681796793749719,0.0,4.32049334,True,True
2675,Li2Mn(PO3)4,mp-540477,P-1,2.7393302941581816,0.048428925087773855,3.8816000000000006,1.69361632,False,True
2676,Li6FeO4F,mp-778608,P2_1,2.635811250923724,0.09386183625000033,2.4372,1.05660433,False,True
2677,Li2CuSiO4,mp-758758,Pnma,3.3509795255977814,0.06482963875000003,0.0,2.40943181,False,True
2678,Li2FeP2O7,mp-757481,P2_1/c,2.932672297853048,0.03446255118052566,4.4094999999999995,1.83010336,False,True
2679,Li5V3P8O29,mp-760779,C2/c,2.585240272274932,0.03750480475925766,1.2696999999999998,0.58198621,False,True
2680,Li2Cu(PO3)4,mp-849754,P2_1/c,2.6134769013829295,0.0668936844298047,0.0,1.26354127,True,True
2681,Li5Co4(BO3)4,mp-1177143,P1,3.215130570581886,0.20260352230000134,0.7533999999999996,3.27673424,False,True
2682,Li2NiBO4,mp-770921,P2_1/c,2.849297262724019,0.07955847002402905,0.6168,0.45088269,False,True
2683,Li9Co7O16,mp-1175480,C2/m,4.354324946312365,0.06543700562500021,0.0,2.09694722,False,True
2684,Li3V(SO4)3,mp-772425,R-3,2.6634271033408865,0.0787937255263147,0.0,2.03644291,False,True
2685,Li9Mn2Co5O16,mp-1100659,Cm,4.1375484782263126,0.10791894937500057,0.029199999999999893,2.85097671,False,True
2686,Li9Mn2Co5O16,mp-1175889,P1,4.190148153094747,0.18082868625000081,0.18339999999999979,2.34930515,False,True
2687,Li9Mn2Co5O16,mp-1175388,P-1,4.274852421989889,0.12285588593750063,1.5378000000000003,2.21192953,False,True
2688,Li7TiFe3(PO4)6,mp-760106,R3,2.8270251676952447,0.06812063890241138,1.0648,2.47625939,False,True
2689,Li7Mn2(CoO4)3,mp-1174622,P-1,4.082872506447991,0.0550647904166679,1.5614000000000001,3.55861634,False,True
2690,Li6MnV3(PO4)6,mp-764743,P1,2.8645971823196223,0.0416274451406089,0.33899999999999997,1.91407248,False,True
2691,Li2CeO3,mp-1178039,C2/c,4.509083758254858,0.04934528166666663,2.176,2.25306657,False,True
2692,Li8Nb2O9,mp-28030,P-1,3.5322282091300243,0.0,3.1104,3.87423477,False,True
2693,Li9Mn2Co5O16,mp-1175633,P-1,4.148745227565097,0.08540094968750012,0.45699999999999985,2.80394055,False,True
2694,Li3Mn2(P2O7)2,mp-781754,P1,2.8264710028696896,0.004387376413044208,0.0,1.76213953,False,True
2695,Li5Mn2Fe(BO3)4,mp-766508,Pc,3.0548027705993475,0.043892500052088224,0.0,2.26447549,False,True
2696,Li6NiO4,mp-1568601,P4_22_12,2.6896630294376247,0.03768359454545411,3.2254000000000005,0.90783302,False,True
2697,Li3MnV(PO4)3,mp-778000,R-3,2.8554853213673357,0.014632692187497298,0.7010999999999998,2.45790511,False,True
2698,Li3Mn2(PO4)3,mp-758937,P2_12_12,2.9438716589059246,0.01834720200004991,0.4872000000000001,1.32550085,False,True
2699,Li5V3P8O29,mp-1177186,P1,2.5617924393259317,0.04286688187036969,0.0,0.81149417,False,True
2700,Li4Ga3Si3ClO12,mp-554203,P-43n,2.8493257189956576,0.0,4.640499999999999,-0.44712042,True,True
2701,Li7Mn2(CoO4)3,mp-1174539,P-1,4.103111057569392,0.067135342916667,0.9338000000000002,3.29626858,False,True
2702,Li2MnP3O10,mp-863414,P2_1/m,2.8623525802247185,0.07976018354164349,0.0,1.90290167,False,True
2703,Li9Mn2Co5O16,mp-1100714,P2/m,4.166984737947908,0.06700684312500016,1.1179000000000001,2.32194864,False,True
2704,Li5V3P8O29,mp-849999,C2,2.5757935849745217,0.035980549092592184,0.0,0.88691381,False,True
2705,Li19(CoO4)4,mp-768441,Pm,2.723771130254438,0.08413296756410027,0.0,0.84525791,False,True