,formula,mp-id,crystal system,density,energy above hull,band gap,efermi,is gap direct,theoretical
2319,Li3Cr2(PO4)3,mp-1177733,C2/c,2.694976312096404,0.09283614100000293,2.2562,3.00885454,True,True
2320,Li2P2WO8,mp-757954,Pc,4.22893920216323,0.06542102961538365,2.3738,1.93843207,False,True
2321,Li2NiCSO7,mp-771145,P2_1/m,2.73540831746259,0.06106806229166484,3.2596,1.39053005,False,True
2322,Li9Mn2Co5O16,mp-1175936,P1,4.183040330516648,0.0948259353125005,0.0,2.45742465,False,True
2323,Li2Cr(Si2O5)2,mp-758261,P2_1/m,2.4961530906889795,0.06469114832353284,2.7249,2.21375256,False,True
2324,Li5Mn2CoO8,mp-1174406,P1,3.823307075566238,0.11368465687500073,0.1615000000000002,2.58354221,False,True
2325,Li2AlVO4,mp-770360,P2_1/c,2.827783274092939,0.0892994659375006,2.1357999999999997,2.5912686,False,True
2326,Li6Cu(B2O5)2,mp-1191302,P-1,2.4527649708947736,0.010591074523811805,1.0877000000000001,1.247423,False,True
2327,Li3Ni2OF5,mp-859785,F222,3.8193225969900664,0.09622872454545561,0.4111999999999999,0.68380479,True,True
2328,Li4MnCo2O7,mp-1174507,P-1,4.130338369152922,0.10588732214285557,0.6579999999999999,3.07528057,False,True
2329,Li9Mn2Co5O16,mp-1175474,C2/m,4.228631366720599,0.05226839656250082,1.3859,3.43627954,False,True
2330,Li4V3P8O29,mp-765417,P1,2.531480102549114,0.04893078617424074,0.4153,0.62018523,False,True
2331,Li4MnCo2O7,mp-1174674,P1,4.2466393963846345,0.09354081178571239,0.0,2.64801759,False,True
2332,Li5Co3O8,mp-1174016,P2/m,4.029607138107284,0.10063676812499711,0.36529999999999996,2.15866807,False,True
2333,Li9Mn2Co5O16,mp-1175629,P-1,4.199433688680568,0.09595405125000056,0.4447000000000001,2.71628517,False,True
2334,Li2CaGeO4,mp-7611,I-42m,3.4817825060824297,0.0,4.1135,0.91971225,False,True
2335,Li3MnV(PO4)3,mp-1177563,P1,2.877693114934326,0.051444170812497525,0.5622000000000003,1.78924811,False,True
2336,Li7Mn2(CoO4)3,mp-1174656,P-1,4.091660642886799,0.07789946624999988,0.6038000000000001,3.1927804,False,True
2337,Li4MnO2F3,mp-759014,Cm,3.10435352888043,0.09567547750000305,0.9809,0.95319054,False,True
2338,Li4(CuO2)3,mp-25248,C2/m,3.7919934936656854,0.020071756538466268,0.0,2.27325488,False,True
2339,Li6Cr3Co(PO4)6,mp-770502,P1,3.0578459366698985,0.06051045374999742,1.3458999999999999,1.74395801,False,True
2340,Li2BiO3,mp-768970,Pnna,5.693521904747759,0.07923920437499365,0.0,2.99189918,False,True
2341,Li2BrO,mp-1222678,P4/mmm,2.8999490720960157,0.19612011375000016,0.028900000000000037,-0.31222306,False,True
2342,Li2CoBO4,mp-756217,C222_1,3.217544980005689,0.07285225520834082,1.0979999999999999,1.28405504,False,True
2343,Li9Co7O16,mp-1175430,P-1,4.297059562788515,0.06317810562500004,0.8918999999999997,2.10785213,False,True
2344,Li7Mn2(CoO4)3,mp-1175116,Pm,4.031398166628006,0.11165386916666709,0.0,2.77485685,False,True
2345,Li3Mn2P4HO14,mp-807588,P-1,2.7083807447735877,2.1116983508333123,0.20709999999999962,2.60445607,False,True
2346,Li9Mn2Co5O16,mp-1176278,P2,4.1928167598931605,0.10448121312500014,0.11050000000000004,2.79855572,False,True
2347,Li3MnV(PO4)3,mp-777882,Cc,2.8777500506619975,0.0495936609374974,0.0,2.18716992,True,True
2348,Li9Mn2Co5O16,mp-1175898,P2,4.182762786707961,0.11076107906250066,0.0,3.27167138,False,True
2349,Li4Fe(PO4)2,mp-756144,P-1,2.8719313309285313,0.05293974766666132,4.2067000000000005,1.8858081,False,True
2350,Li7Mn4CoO12,mp-1175286,P1,3.888942427160356,0.08252409177083209,0.34529999999999994,2.63439986,False,True
2351,Li2FeP2O7,mp-25845,C2/m,2.7943165301935062,0.03607014680552556,3.9059,0.99028524,False,True
2352,Li32Mn13Cr3O48,mp-777770,P1,3.6952022027704436,0.014553280989575867,1.2042000000000002,2.01027335,False,True
2353,Li9Mn2Co5O16,mp-1100686,Cm,4.158491931712883,0.08346225343750024,0.13439999999999985,2.6981005,False,True
2354,Li4MnCo2O7,mp-1174598,P1,4.15056381659696,0.08452055928571323,0.9175999999999997,2.38424358,False,True
2355,Li7Co5O12,mp-1174365,C2/m,4.16419190409865,0.07015202124999664,0.5137,2.36908312,False,True
2356,Li3TeHO4,mp-696949,P2_1/m,3.1682242144604653,0.0,3.3657999999999997,0.70784245,False,True
2357,Li2FeP2O7,mp-752659,P-1,2.954984702637392,0.04722233368052464,3.6444,2.04439705,True,True
2358,NaLi2FePCO7,mp-772927,P1,2.814794674261676,0.03651502384615668,3.9249,1.64260931,False,True
2359,Li4V3P8O29,mp-1177309,C2,2.5023869990821295,0.04992135231060413,0.28009999999999996,0.75650878,False,True
2360,Li2VP2O7,mp-761070,P2_1/c,2.9223026201182964,0.03734031865450671,2.9218999999999995,3.49588946,False,True
2361,Li9Mn2Co5O16,mp-1175790,P1,4.251111621795394,0.07169660718750048,0.8306999999999998,3.45935312,False,True
2362,Li3Fe2(BO4)2,mp-759625,Pc,2.5017430650339616,0.10403315093333276,0.0,-0.48659777,False,True
2363,Li3CoBO4,mp-768705,I4_1/a,3.166894322854264,0.14458802784721847,1.7308000000000003,2.29654599,True,True
2364,Li9Mn2Co5O16,mp-1175943,P1,4.247731241851031,0.10169180437500014,0.0,2.63929945,False,True
2365,Li2CoBO4,mp-754433,C2/m,3.178111773392475,0.12223731770834068,0.6621000000000001,1.23519664,False,True
2366,Li5V3P8O29,mp-765084,P1,2.5635151197254564,0.03557649687036957,0.9379,0.55233738,False,True
2367,Li3MnV(PO4)3,mp-778002,Cc,2.959145246699809,0.06272950218749695,0.43110000000000026,2.13237171,False,True
2368,Li3Fe2P2(CO7)2,mp-1177738,P1,2.703304348522191,0.08400589206521669,0.0,0.31539232,False,True
2369,Li2HfO3,mp-756597,C2/m,6.4030286160300225,0.029452834166663777,4.4716000000000005,1.20927219,False,True
2370,Li9Fe4(SiO5)4,mp-759075,P1,2.6166843419149033,0.10276265816216323,0.0,0.03698367,False,True
2371,Li4MnCo2O7,mp-1174564,C2/m,4.19498275994282,0.13236903107142783,0.08349999999999991,2.66672682,False,True
2372,Li5V(P2O7)2,mp-758419,P-1,2.7885719962538857,0.06293083947916944,2.6612000000000005,1.80211934,False,True
2373,Li4VO3F2,mp-764753,P1,3.014330856211701,0.08840449899999925,1.6330000000000002,1.84186574,True,True
2374,Li7Mn2(CoO4)3,mp-1174551,C2/m,4.041728596185532,0.15135566791666744,0.0,2.79781816,False,True
2375,Li4MnCo2O7,mp-1174759,P1,4.0853511137293115,0.10833129357142735,0.22489999999999988,2.72938992,False,True
2376,Li6(NiO2)5,mp-752908,P-1,4.306244727450941,0.05447758944444736,0.0,2.74371291,False,True
2377,Li5AuO4,mp-757242,Fddd,4.880483751867384,0.0006062235000001692,1.9587999999999997,0.50252106,False,True
2378,Li3Gd(BO3)2,mp-559706,P2_1/c,3.7797148007895327,0.0,2.9198,3.68852379,False,True
2379,Li7Mn2(CoO4)3,mp-1175050,P1,4.07226527420875,0.11804416375000049,0.0,2.68947011,False,True
2380,Li10Mn2Fe3Co3O16,mp-777350,P1,4.229485247007404,0.0859500259558823,0.7412999999999998,3.2365197,False,True
2381,Li10Zn3(GeO4)4,mp-768947,P1,3.6677244188131572,0.013148021212119332,3.1107,0.17988337,True,True
2382,Li2CoOF3,mp-1318077,P1,3.2091319007839667,0.08722397607142973,0.3345,-0.23132554,False,True
2383,Li9Cu3P8O29,mp-776035,P-3c1,2.7964846336712967,0.029080941398809124,0.0,0.99122931,False,True
2384,Li9Mn2Co5O16,mp-1176302,P2,4.1860757755094555,0.09356153687500068,0.0,2.93965872,False,True
2385,Li2TiSiO5,mp-6332,P4/nmm,2.9937525749044394,0.0,3.2152999999999996,1.89757356,False,True
2386,Li5MnV3O8,mp-764142,P4_332,3.797961050929228,0.05896504436274874,1.7064000000000004,3.49619889,False,True
2387,Li2VO2F,mp-777412,P2_1/m,3.453613185984246,0.04811374374999655,1.4806999999999997,2.99933414,False,True
2388,Li9Mn2Co5O16,mp-1175438,P-1,4.283209096209437,0.06048735937500016,0.7386999999999997,2.70424604,False,True
2389,Li2VO2F,mp-1275346,P2/m,3.56601686238766,0.0828282679166632,0.12550000000000017,3.64833689,False,True
2390,Li2SiNiO4,mp-1177860,Pna2_1,3.2220769822291553,0.023263532187499436,3.5774999999999997,5.29149634,True,True
2391,Na3Li3Mn2P2(CO7)2,mp-772484,P1,2.8244545488882045,0.03648316788461248,3.2924,2.13598181,False,True
2392,Li3Fe2(PO4)3,mp-26677,C2/m,3.3318047117754666,0.03531713575000506,1.3953000000000002,2.31779742,False,True
2393,Li2SiNiO4,mp-757167,P3_1,3.2745608428413484,0.07632789791666728,3.3533000000000004,1.94566532,False,True
2394,Li9Mn7O16,mp-1100503,P-1,3.866448151655944,0.06499388265624972,0.0,2.46930322,False,True
2395,Li7Si2(NiO4)3,mp-756986,C2/m,3.9586944819313823,0.06407715874999997,0.0,3.95524405,False,True
2396,Li7Mn4CoO12,mp-1175148,P-1,3.9837752712144847,0.02489976322916565,0.8826999999999998,3.79089383,False,True
2397,Li7Mn2(CoO4)3,mp-1639121,C2,4.119328011715121,0.10792471291666672,0.4128000000000003,2.45957857,False,True
2398,Li2VO2F,mp-1177758,Cm,3.3712325232608995,0.09087747083332953,1.0331000000000001,3.01483108,False,True
2399,Li4AlCr3O8,mp-768694,P-1,3.9161003338745566,0.013151403281242757,3.1083,3.36664969,True,True
2400,Li6V3P8O29,mp-772227,P1,2.594277385873345,0.026702945172093706,1.3586,0.77133375,False,True
2401,Li2La(NO3)5,mp-1211252,Pnnm,2.653633076949518,0.0,3.7223,3.36941742,False,True
2402,Li5V3P8O29,mp-765197,P1,2.5636957324138767,0.03833352520370337,0.5579999999999999,0.75191124,False,True
2403,Li4V3P8O29,mp-851255,P1,2.5219066098024197,0.0454520310606048,1.0,0.35642048,False,True
2404,Li9Mn7O16,mp-1100509,P-1,3.9150900453639537,0.04706399171875031,0.45599999999999996,2.812146,False,True
2405,Li7Mn4CoO12,mp-1175311,Cm,3.880588826720734,0.06587487968749883,0.6909999999999998,2.83790149,False,True
2406,Li7V5O12,mp-766239,P-1,3.694872443767246,0.021132247499999757,0.7700999999999998,3.6263747,False,True
2407,Li3MnV(PO4)3,mp-1177614,P1,2.8886715492142545,0.06278212181249732,0.5481,2.36590797,True,True
2408,Li4MnCo2O7,mp-1174747,P1,4.0582900901437675,0.12870711285714176,0.0,2.61774446,False,True
2409,Li2VP2O7,mp-754669,P2_1,2.7064157666887243,0.016684068967006027,2.7579000000000002,3.12792356,True,True
2410,Li2AlNiO4,mp-770400,P2_1/c,3.1174402208185903,0.09055159760416664,1.2242,1.44995297,False,True
2411,Li5Mn2(PO4)3,mp-849398,P2_1/c,2.9191728625044666,0.03917676806817649,4.1097,1.99555347,False,True
2412,Li2CoSiO4,mp-758372,C222_1,3.0899267628201845,0.009668001874993948,2.4181000000000004,1.98865099,False,True
2413,Li4Fe2SiO7,mp-753109,P-1,3.786703234052167,0.07252485714285761,1.6413000000000002,3.26185128,False,True
2414,Li24Ti11CrO36,mp-778889,C2,3.3399333678524505,0.0031278889930570486,1.4958999999999998,1.95040597,False,True
2415,Li3Sn(PO3)6,mp-673096,P1,2.9605971112250233,0.08316767254462931,0.0,2.17794831,False,True
2416,Li4Mn3O7,mp-1174316,P-1,3.907914983632437,0.047833623214285304,0.4890000000000003,2.85463501,False,True
2417,Li9Mn2Co5O16,mp-1100626,Cm,4.149328033682178,0.10405921875000068,0.0,2.93821135,False,True
2418,Li4Zr3O8,mp-1222512,C222,4.129788492553236,0.0672163056666708,3.1482,4.14223323,False,True
2419,Li3MnV(PO4)3,mp-1177580,P1,3.1645064339599767,0.056234687687496177,0.6365999999999996,2.5206608,False,True
2420,Li6V3P8O29,mp-1176928,P1,2.5704490478576147,0.02227709712861614,0.9865,0.83605007,False,True
2421,Li7Mn5O12,mp-764764,C2/m,3.90590786973962,0.013530875833333234,0.25229999999999997,3.03612398,False,True
2422,Li9Mn2Co5O16,mp-1176193,P1,4.204494744352381,0.11085522500000078,0.0,2.6760986,False,True
2423,Li24Mn5Cr7O36,mp-768905,P1,3.6265391386164803,0.03583885402777476,0.7504,3.03859683,False,True
2424,Li2NiO2F,mp-764731,Cc,3.9612327479662266,0.089310501805552,0.7120000000000002,2.05189728,False,True
2425,Li7Mn2(CoO4)3,mp-1174493,C2/m,4.101222431929343,0.06149192750000054,1.3066,2.27506989,False,True
2426,Li2FeSiO4,mp-764346,Pna2_1,3.0654656835293603,0.005463445937500033,2.8767,2.10523659,False,True
2427,Li4Bi3O8,mp-769008,P2_1/m,6.621929154153449,0.06512151927777676,0.0,3.49405437,False,True
2428,Li3Mn(PO4)2,mp-757651,P2_1/c,2.7901243453243163,0.05623837678576482,1.1737000000000002,1.36257077,False,True
2429,Li8VO5F,mp-859132,P6_3,2.26278787612187,0.05136932033333341,2.0073,1.69406745,False,True
2430,Li4CuSi2O7,mp-765980,Cc,2.946524049957324,0.049311663928571114,0.0,2.13871365,False,True
2431,Li2Mo(PO4)2,mp-26348,Cm,3.408614637160662,0.05689671461540424,1.5154,2.64691046,False,True
2432,Li6MnO4F,mp-767576,P2_1,2.645366665187393,0.08403145895833664,0.9823,1.4451723,False,True
2433,Li9Mn2Co5O16,mp-1175644,C2,4.26707075394498,0.06917409093750049,0.0,2.92109761,False,True
2434,Li3Mn2(SiO4)2,mp-778489,Pc,2.910835065055634,0.08713445236109951,0.36970000000000014,1.832647,False,True
2435,Li9Mn2Co5O16,mp-1175650,C2,4.207547271521317,0.07579650062500054,0.6863000000000001,2.5384239,False,True
2436,Li7Mn2(CoO4)3,mp-1175004,Pm,4.06390803478044,0.10364376208333326,0.0,3.20216891,False,True
2437,Li7Mn4CoO12,mp-1175215,P1,3.954563940908926,0.05029379385416455,0.0,3.16362138,False,True
2438,Li14Ce5Si11N19O7F2,mp-1224471,Pmn2_1,3.773996586568646,0.04460871254309584,0.0,6.822116,False,True
2439,Li2MoO3,mp-1223324,P-1,4.3143316369805715,0.012879858541662514,1.4571,3.38619779,False,True
2440,Li14W7O32,mp-1198827,P-43m,3.4979261338311507,0.5343799891257861,0.0,-2.50518286,False,True
2441,Li4V3P8O29,mp-1177194,P1,2.4821434378802185,0.05022830185605898,1.0384,-0.01128707,False,True
2442,Li3MnV(PO4)3,mp-1177669,P1,2.879501317001339,0.02416607218749789,0.12309999999999999,1.73593751,True,True
2443,NaLi5Fe2P2(CO7)2,mp-772636,P-1,2.8177943306571493,0.04043070192307674,4.0232,1.81366701,False,True
2444,Li2Cu(HO)4,mp-769242,Pna2_1,2.811564926427782,0.07909127431817708,0.0,1.89040362,False,True
2445,Li2FePO4F,mp-776062,Pnma,3.172874166083864,0.2596675779166615,3.6729999999999996,2.04269643,True,True
2446,Li9Mn2Co5O16,mp-1175760,P1,4.249241699305128,0.10481705156250065,0.5621999999999998,2.74853458,False,True
2447,Li7Mn4CoO12,mp-1667712,P-1,3.975952369156024,0.03837349677083157,0.7776000000000001,2.82710688,False,True
2448,Li7Cr3Fe(PO4)6,mp-780107,R3,2.8743816952597663,0.058460941280495504,1.5433,2.4030812,True,True
2449,Li7Cu(SiO4)2,mp-860886,C2/m,2.5602135174313987,0.09400833708333245,0.8933999999999997,2.62601805,True,True
2450,Li5Fe2P2(CO7)2,mp-756740,P1,2.73886264233812,0.02930480095000565,1.3572,1.75376437,False,True
2451,NaLi2FePCO7,mp-772717,P1,2.855696944250436,0.038669874038464336,3.8388,1.93516666,False,True
2452,Li3Fe2(PO4)3,mp-758962,C2,2.9783420369729168,0.0551346927500056,1.8979000000000001,3.28227325,False,True
2453,Li3(CuO2)2,mp-25317,C2,3.5172478985735394,0.030003342222223672,0.0,1.88637752,False,True
2454,Li3Mo2P3O14,mp-699602,P2_1/c,3.133337188355174,0.07542144444320531,1.2828000000000004,2.05797274,False,True
2455,Li4MnCo2O7,mp-1174608,P1,4.178657047907429,0.07309262214285539,0.5905,3.03968535,False,True
2456,Li9Mn2Co5O16,mp-1175837,P1,4.252134896015544,0.16405884093750078,1.0814999999999997,2.61806355,False,True
2457,KLi3GeO4,mp-18002,P-1,3.028475029410248,0.0,3.9291,-0.04168301,False,True
2458,Li6MnV3(PO4)6,mp-777874,P1,3.000351927396415,0.020609259515607548,0.2604000000000002,2.25642551,False,True
2459,Li2Fe(SiO3)2,mp-863407,Pmn2_1,3.0233561463537812,0.08624900704545535,2.6240000000000006,3.36816444,False,True
2460,Li3CoO3,mp-867660,P4_2/mnm,3.0665175927012696,0.22323328857142943,1.2076000000000002,0.95053144,True,True
2461,Li2B5SbO10,mp-769374,P2_1/c,2.8942606435451257,0.05324505097219223,3.3989999999999996,1.83630439,True,True
2462,Li3MnBPO7,mp-757046,P2_1/m,2.7448016763853604,0.08042704268029155,1.1598000000000002,1.78195842,False,True
2463,Li9V3P8O29,mp-761083,P1,2.634728782404266,0.019588142738066416,1.4196,1.85841752,False,True
2464,Li9Mn2Co5O16,mp-1176305,P2,4.262613316032774,0.0829959712500008,0.33789999999999987,3.20137822,False,True
2465,Li3MnV(PO4)3,mp-887423,P-1,3.15892795114358,0.05619080068749671,0.6198999999999999,2.47993323,False,True
2466,Li12MnV7(PO4)12,mp-779342,P1,2.91933901085235,0.010462117445299235,0.1814,2.02723002,False,True
2467,Li3MnSi2O7,mp-753370,P1,2.7093958665176916,0.09789346273156418,0.7233999999999998,1.20355584,False,True
2468,Li9Co7O16,mp-1175450,P2/m,4.305007554605422,0.060179289687499526,0.8594999999999997,2.17999841,False,True
2469,Li7Mn2(CoO4)3,mp-1174866,P2/m,4.049503536849616,0.13908033750000026,0.0,2.63530292,False,True
2470,Li12CoNi3P4(CO7)4,mp-766547,Pm,2.929863196903789,0.060168540576925444,2.9723000000000006,2.00839288,False,True
2471,Li3V2(O2F)2,mp-759102,P1,3.222606451227654,0.09186020170453357,0.6821999999999999,2.19875894,False,True
2472,Li4MnCo2O7,mp-1174668,P1,4.1106723341176625,0.12337041071428434,0.0,2.83191173,False,True
2473,Li6NiO4,mp-1570562,Cmm2,2.6865366046318835,0.021338538181817412,3.3229,0.86563628,False,True
2474,Li9Mn2Co5O16,mp-1100567,Pm,4.096395663108282,0.14575073531250027,0.0,2.59308041,False,True
2475,Li7Co5O12,mp-1174307,P-1,4.13679303783387,0.10494902708333154,0.49160000000000004,2.25681318,False,True
2476,Li3VSi2O7,mp-766039,Pnma,2.815419957564017,0.050636526394251646,2.1313,2.81577736,False,True
2477,Li6V2OF11,mp-801743,P1,2.9143324939149284,1.521622722249992,0.27270000000000005,0.90067797,False,True
2478,Li3Fe(PO4)2,mp-773399,P2_1/m,3.0761224190586085,0.015633259464283178,2.16,1.80593469,False,True
2479,Li3Fe2(PO4)3,mp-758654,P1,2.964509770712252,0.005756336000005469,0.5349000000000002,1.40473504,False,True
2480,Li11V6O5F19,mp-778354,P1,3.000892627290749,0.08720197509147898,0.44569999999999976,2.43466078,False,True
2481,Li7Mn4CoO12,mp-1175219,P1,4.005629095950216,0.03504337927083245,0.6917,3.57626814,False,True
2482,Li2VOF3,mp-753093,C2/m,2.972501171731914,0.06438656767858575,1.3647000000000002,1.30410346,False,True
2483,Li9Mn2Co5O16,mp-1176026,P1,4.275399466256109,0.17439066968750083,0.19280000000000008,2.94457811,True,True
2484,Li5(NiO2)4,mp-891926,Cmc2_1,4.551356016612519,0.10765011264706192,0.0,3.3381645,False,True
2485,Li5Mn3(PO4)4,mp-755112,Pm,3.1768553297943134,0.012032993571390094,0.0,2.4095636,False,True
2486,Li3CrO4,mp-770928,C2/c,3.3026714254696237,0.07499552437500068,0.22940000000000005,1.95614812,False,True
2487,Li3Cr(Si2O5)3,mp-765207,Pnma,2.767702878257767,0.040974972399998144,3.2396000000000003,1.85968087,False,True
2488,Li9Mn2Co5O16,mp-1100679,Cm,4.220669432119075,0.21184880125000038,1.2033999999999998,2.31860784,False,True
2489,Li2FeP2O7,mp-1982622,P1,2.9592577111761322,0.04715799888885819,4.0783,1.79080871,True,True
2490,Li7Sb2P7O24,mp-762329,P2/c,2.9550659333016727,0.07421080631250287,3.806,2.12368556,False,True
2491,Li3Bi(BO3)2,mp-768797,P-1,3.7623872015050086,0.07442026354166398,3.2588999999999997,0.65822768,False,True
2492,Li2NiP2O7,mp-753962,Imma,2.6674626773606973,0.06453365472222039,2.0738,0.91225344,False,True
2493,Li2Co(Si2O5)2,mp-770682,P-1,2.7398675617951755,0.0896727802941184,2.8011000000000004,5.22426387,False,True
2494,Li3Cr2(PO4)3,mp-26705,C2/c,3.0481413011781493,0.03052888175000401,2.6651999999999996,1.70146151,True,True
2495,Li2MnP2O7,mp-1203394,P2_1/c,2.905414024130417,0.0,4.3532,5.9667762,False,True
2496,Li5Ni3O5F3,mp-759011,P1,4.017549196212231,0.10582367447916674,0.4051999999999998,2.44084339,False,True
2497,Li7Mn5O12,mp-1639032,P-1,3.869367762067421,0.02882195979166724,0.79,2.81481329,False,True
2498,Li2CoPCO7,mp-25454,P2_1/m,2.7977017773390487,0.050053489791666905,0.7795999999999998,1.20956079,False,True
2499,Li7Mn4CoO12,mp-1175202,P1,3.986359881322224,0.05783717385416498,0.49929999999999986,3.57852413,False,True
2500,Li9Mn2Co5O16,mp-1175537,P-1,4.156480691379437,0.13489373937500027,0.0,2.70958571,False,True
2501,Li4V2Si4O13,mp-850217,Pna2_1,3.0391916631166924,0.03108592320649972,2.1984999999999997,3.249857,False,True
2502,KNa2Li3Cr2(Si2O5)6,mp-16282,P6/mcc,2.6829079232121065,0.0,4.3993,1.85527111,False,True
2503,Li4MnSi2O7,mp-752722,C2,2.804285125586108,0.023302023571431185,3.0683000000000002,2.15101237,False,True
2504,Li10Mn3Cr3(NiO8)2,mp-774408,P1,4.178539431999093,0.07544232477941115,0.6225,4.48132397,False,True
2505,Li8Ti2O7,mp-772920,P2_1/c,2.473958160782594,0.0878299277352923,0.6297999999999999,3.65855293,False,True
2506,Li3SbH18S4O9,mp-777963,P2_13,1.871472245731574,0.01318454035714467,1.8864,-0.30345271,False,True
2507,Li4V3P8O29,mp-765408,P1,2.5248019132727637,0.04628428083333169,0.8222,0.34195824,False,True
2508,Li2CuCSO7,mp-771969,P2_1/m,2.81575984624645,0.0770650989583288,0.12809999999999988,1.79315881,False,True
2509,Li4Co3P4O15,mp-778384,Pna2_1,3.1997140138061857,0.07464146256411652,2.8956,2.28662744,False,True
2510,Li9Mn2Co5O16,mp-1175770,P-1,4.114969335679585,0.1257578146875007,0.13229999999999986,2.56319481,False,True