,formula,mp-id,crystal system,density,energy above hull,band gap,efermi,is gap direct,theoretical
1549,Li4Cr2P4H3O16,mp-756092,P1,2.76355813116852,0.033462978448298486,0.9188000000000001,2.97126175,False,True
1550,Li4V3P8O29,mp-765025,P1,2.5009448428860437,0.04683433333333209,0.7861,0.18162181,False,True
1551,Li6Y(BO3)3,mp-14704,P2_1/c,2.616442422572902,0.0,4.9362,0.57416394,True,True
1552,Li9Mn2Co5O16,mp-1176145,P1,4.132955134985908,0.1240474778125007,0.1059000000000001,2.3593512,False,True
1553,Li7Mn2(CoO4)3,mp-1174956,P1,4.075844034545598,0.07204835708333324,1.1139999999999999,3.29441236,False,True
1554,Li7Mn5O12,mp-1175349,P-1,3.84999519982539,0.023992494374999396,1.0023,3.62862052,False,True
1555,Li3MnO4,mp-754245,Cmmm,3.3293083774839625,0.06721167062499944,0.0,1.43815109,False,True
1556,Li2Co(SiO3)2,mp-753142,Fdd2,2.895681243223014,0.009892253636363257,2.8033999999999994,2.10281787,True,True
1557,Li4FeOF5,mp-759422,Cm,2.4850396326357784,0.08434041631313782,1.5509999999999997,-2.34728445,False,True
1558,Li3MnB4O9,mp-768410,P2_1/m,2.6250893946459484,0.06834115042280153,0.4887999999999999,1.20403387,False,True
1559,Li3Mn2(P2O7)2,mp-753725,Pc,2.938768333759425,0.030890615434782553,0.03949999999999987,2.52141816,False,True
1560,Li9Mn2Co5O16,mp-1100738,C2/m,4.144995255046996,0.1077318609375002,0.0,2.58203531,False,True
1561,Li17Ni11O28,mp-757655,P-1,4.34004411615356,0.01723299672619305,0.0,3.48071958,False,True
1562,Li4Mn3O7,mp-1174296,P-1,3.9222841915027566,0.02399925678571435,0.9933000000000001,2.76753661,False,True
1563,Li5Mn3O5F3,mp-759593,P1,3.5792455150142004,0.08848514812499797,0.6690999999999998,2.82268245,False,True
1564,Li2MnPO4F,mp-776063,Pnma,3.068461807488416,0.027158774722220613,3.0801,5.70576708,True,True
1565,Li3NiOF3,mp-753094,C2/m,3.5481939320656934,0.08631315624999836,2.8294999999999995,5.38132775,False,True
1566,Li7Mn2(CoO4)3,mp-1175006,Cm,4.002282812728183,0.13132983583333413,0.0,2.54638366,False,True
1567,Li2CoO3,mp-1173891,P-3m1,3.722006642737222,0.19408861666666688,0.0,0.97615439,False,True
1568,Li9(CoO4)2,mp-755939,C2,2.6367410235308943,0.08650788921052044,0.6165,0.44895644,False,True
1569,Li12Fe3CoP4(CO7)4,mp-1178117,Pm,2.8054159412213027,0.04408324182692347,2.1716999999999995,2.0166684,False,True
1570,Li2AlFeO4,mp-772430,P2_1/c,3.2371273810395773,0.03873548406250027,1.8799000000000001,2.17061,False,True
1571,Li2FeP2O7,mp-1648306,C2/c,2.766677806258276,0.03356263430552442,4.4589,5.60205351,False,True
1572,Li3FeB4O9,mp-752621,P2_1/m,2.6463284675406484,0.03202495404412531,2.7008,0.81807214,False,True
1573,Li3CuSiO4,mp-758844,I4_1/a,3.1375794168283346,0.09860188916666779,0.8529999999999998,3.98278152,True,True
1574,Li9Mn2Co5O16,mp-1100667,Cm,4.166182444057676,0.0815211593750007,0.4827999999999997,3.29170899,False,True
1575,Li3(RuO3)2,mp-675354,C2/c,5.60648037034412,0.3706200127272732,0.0,4.18251171,False,True
1576,Li3Sc2(PO4)3,mp-6565,P2_1/c,2.6506132826785866,0.0,4.7407,0.78336355,False,True
1577,Li24Mn7Cr5O36,mp-768925,P1,3.669017661595938,0.0360965535416673,1.1144999999999998,2.055315,False,True
1578,Li3LaO3,mp-780226,P-31c,3.8712990414785637,0.09529240901785574,3.8721999999999994,2.01402055,False,True
1579,Li2FeBO4,mp-770663,Pmn2_1,3.2092659548326954,0.048836356249999824,1.9172000000000002,1.48215177,False,True
1580,Li4MnCo2O7,mp-1174434,P-1,4.131377677535634,0.07418295892856985,1.4587999999999997,2.08336979,False,True
1581,Li6MnV3(PO4)6,mp-1176984,P1,2.9430168348724504,0.05195821814060775,0.5417000000000001,2.1264521,False,True
1582,Li2MnO2F,mp-1574529,Pnma,3.4946673750348163,0.03628485333332865,2.3681,1.44670941,False,True
1583,Li6V3P8O29,mp-757213,P1,2.59898967014462,0.024908666476442853,1.2362,0.785417,False,True
1584,Li3V(Si2O5)3,mp-1265172,Pmc2_1,2.6760332644300417,0.03211286974999261,2.3996999999999997,4.86356407,False,True
1585,Li3CoPCO7,mp-1177705,P1,2.8808080405613006,0.055135581538461764,2.4226,3.91787793,False,True
1586,Li7Mn2(CoO4)3,mp-1175057,P1,4.007973031352001,0.30177178291666706,0.0,2.28044295,False,True
1587,Li3Sb(PO4)2,mp-759406,P2_1/c,3.5317984966784484,0.08699049482144083,3.175,3.40666489,False,True
1588,Li2MnP2O7,mp-26413,P2_1/c,2.8207146988581635,0.02505461604166559,3.7668,5.56484806,False,True
1589,Li9Mn2Co5O16,mp-1176270,P1,4.134128429130137,0.1271253809375006,0.0,2.39775279,False,True
1590,K9Li3I2O13,mp-556215,P-62c,2.9984884223273296,0.053106657777778565,0.7629999999999999,2.80403188,True,True
1591,Li7Mn5O12,mp-1175375,C2/m,3.889469672685654,0.05251909854166659,0.3765999999999998,3.26079944,False,True
1592,Li2CrO2,mp-1276717,P-1,3.2348397714667603,0.08436232049999948,1.6402999999999999,4.1492624,False,True
1593,Li2FeSi4O11,mp-758998,I4/m,2.6940541163482754,0.08275262254629911,0.0,1.13978791,False,True
1594,Li2CoO2,mp-755297,P-3m1,3.945060181111214,0.02570421437500059,2.5492,2.07485341,False,True
1595,Li3VO4,mp-19219,Pmn2_1,2.6975068558216786,0.0,3.6915999999999998,-0.67359684,False,True
1596,Li4TiCrO6,mp-768404,C2/c,3.460818529714931,0.01773417499999841,0.9031000000000002,3.30409693,False,True
1597,Li3Co2O5,mp-1173970,C2/m,4.227537153819511,0.059369370499999796,0.0,2.16220192,False,True
1598,Li4Fe3OF8,mp-849544,Pmn2_1,3.2417484957466356,0.10843194765624986,2.6677,0.51077585,False,True
1599,Li2AlCoO4,mp-770553,Pna2_1,3.163415432565114,0.07678199874999958,1.2949000000000002,1.38444275,False,True
1600,Li5Cr(SiO3)4,mp-1177439,R32,2.587891420050075,0.07135178428030553,0.0,3.90725725,False,True
1601,Li3Bi2(PO4)3,mp-759390,P2/c,4.534977099313339,0.08922611474999975,2.7433,2.18004645,False,True
1602,Li6V3P8O29,mp-772961,P1,2.59715958106559,0.0232566554981819,0.7631999999999999,1.03597157,False,True
1603,Li3FeO6,mp-1211341,Cmmm,0.18116760640113996,1.3263254004285718,0.0,-4.48329585,False,True
1604,Li3Mn2P2O8F3,mp-759148,Pnnm,2.9232190319597486,0.07141643666667186,0.0,1.35989729,False,True
1605,Li6NiO4,mp-1641670,P4_2mc,2.685836405034215,0.0237609799999996,3.1708999999999996,0.92341906,True,True
1606,Li9Fe4(BO3)8,mp-1176821,P1,2.6827472706474476,0.06902848393333194,0.0,0.33817387,False,True
1607,Li2NiP2O7,mp-764152,P2_1/c,3.1831727457712145,0.00993134659722017,3.4846000000000004,1.96800726,True,True
1608,Li6Fe5O12,mp-780188,C2,3.920093570880361,0.0351649307919244,0.0,2.01880241,False,True
1609,Li9Mn2Co5O16,mp-1175919,P1,4.182839904567198,0.0901734946875008,0.7599999999999998,2.66687337,False,True
1610,Li7FeO5F,mp-754420,P1,2.5828032885960996,0.06304720035714162,0.27070000000000005,0.47882902,False,True
1611,Li2SiNiO4,mp-766812,P2_1/c,3.1787930890266027,0.02641824374999935,3.2952,1.64125096,False,True
1612,Li3Nd3(WO6)2,mp-557717,Ia-3d,6.6665816160376075,0.0,3.8179,1.44726935,False,True
1613,Li2VSi3O8,mp-766402,P4_332,3.527796830289226,0.09792447276786209,2.766300000000001,5.95927143,False,True
1614,Li2FeBO4,mp-771016,P2_1/c,2.678985731720054,0.027886174062500046,2.1638,0.20831923,True,True
1615,Li2VO2F,mp-759482,C2/m,3.540910325851611,0.059719913749996856,0.0,3.70533525,False,True
1616,Li2MnSiO4,mp-755842,C222_1,2.8884571039777645,0.01380833499999845,2.9620999999999995,1.7540794,False,True
1617,Li5Sb(P2O7)2,mp-761952,P-1,3.039831016062421,0.05002329184027943,4.0344,1.9163929,False,True
1618,Li9Mn2Co5O16,mp-1175834,P-1,4.240846133508817,0.09739803781250078,0.2894000000000001,3.12307851,False,True
1619,Li5Fe2(IrO5)2,mp-1222691,C2,5.988287133877876,0.015523042026315714,0.0,3.16913235,False,True
1620,Li2MnO2F,mp-1295085,C2/c,3.4898099695313567,0.03343577624999572,2.21,3.63783606,False,True
1621,Li9Mn2Co5O16,mp-1175799,P-1,4.150145020392957,0.13728616875000021,0.0,2.95023404,False,True
1622,Li2VBO4,mp-768869,Pna2_1,3.015085409349981,0.08834008624999967,1.9704000000000002,2.75081251,True,True
1623,Li3MnCoO5,mp-1174159,P1,3.923978623607915,0.12933171799998888,0.13019999999999987,3.19186733,False,True
1624,Li3V2OF7,mp-752612,Cm,2.9349318316243713,0.05201059591345203,2.0167,0.10562241,False,True
1625,Li9Mn2Co5O16,mp-1176114,P1,4.136941677526537,0.13073075000000056,0.18969999999999976,2.70327764,False,True
1626,Li2Mn(SiO3)2,mp-757169,C2,2.9195887187155845,0.08516914037878554,3.1693000000000002,2.63799135,False,True
1627,Li6V3P8O29,mp-772196,P1,2.579437138474249,0.021736141367746598,1.3211,0.76847287,False,True
1628,Li2V(Si2O5)2,mp-766408,P-1,2.617388989804937,0.07012240169116701,1.282,5.40267622,False,True
1629,Li5V3P8O29,mp-1177180,P1,2.554948508068001,0.03385473520370308,1.0168,0.47212756,False,True
1630,Li2SeO4,mp-667309,P1,2.29090963684992,0.5145901719047616,3.0521,-1.06673401,False,True
1631,Li7Mn2(CoO4)3,mp-1175102,Cm,4.0593580574318935,0.10226293333333292,0.046499999999999986,2.85979878,False,True
1632,Li4V3OF11,mp-765238,P1,3.193211266088769,0.03691985750000626,1.8126000000000002,0.72518788,False,True
1633,Li9Mn7O16,mp-1100544,P-1,3.9275132865469775,0.03271805859374943,0.0,3.0421366,False,True
1634,Li4V3P8O29,mp-1177190,P1,2.509908067490609,0.05052884208333186,0.8981000000000001,0.20849207,False,True
1635,Li3FeSiO5,mp-752472,P-1,3.6304850099628587,0.09482416724999965,1.8987000000000003,3.60662628,False,True
1636,Li3LaNiO4,mp-776434,I4_1/a,4.524542108190874,0.08468758423611078,2.2628999999999997,3.38166421,True,True
1637,Li5InO4,mp-753783,Pmmn,3.1906253798581634,0.0482979024999981,2.6407000000000003,0.84268943,True,True
1638,Li3GaSiO5,mp-16996,Pna2_1,3.144400938131675,0.0,3.5423999999999998,0.89255394,False,True
1639,Li2Sn(BO3)2,mp-755757,P-1,3.088501519757253,0.09470120318181685,2.1593,0.95047242,False,True
1640,Li3Mn2(PO4)3,mp-773057,P2_1/c,2.9472277097832866,0.010273239125049294,0.8770000000000002,1.31115085,False,True
1641,Li4CoO4,mp-759339,Pc,2.5862783623259125,0.10953838375000036,0.6640999999999999,0.08859675,False,True
1642,Li5TiMn3O8,mp-761048,P1,3.8139295038003924,0.08370201823529388,0.2561,3.48879787,True,True
1643,Li9Mn2Co5O16,mp-1176273,P2,4.24541012066692,0.08421211875000001,0.5234999999999999,3.28561699,False,True
1644,Li32Ti11Cr5O48,mp-777154,C2,3.4138584097926996,0.01731376976562249,1.1754000000000002,2.22478814,False,True
1645,Li24Mn11CrO36,mp-770669,C2,3.7262429814870344,0.006906830069456582,1.5100000000000002,1.86690211,False,True
1646,Li9Mn2Co5O16,mp-1176038,P1,4.194227044760088,0.09360730687500052,0.04430000000000023,2.93630548,False,True
1647,Li3Ti2(PO4)3,mp-758362,C2,2.80848446010999,0.09474558973332936,0.00140000000000029,4.47099947,False,True
1648,Li2TeO4,mp-13843,P4_122,4.554077838759675,0.0,2.1007,2.0580068,False,True
1649,Li9Mn2Co5O16,mp-1176014,P1,4.194577643857204,0.08302556875000011,0.6980999999999997,2.55269257,False,True
1650,Li3NbO4,mp-36086,I4/mmm,3.951811515780362,0.06722110093750011,1.0370999999999997,1.69490759,True,True
1651,Li5VP2O9,mp-559308,I4/mcm,2.7845806447619417,0.06847076203431435,0.0034999999999998366,3.17288086,True,True
1652,Li3Mn2(P2O7)2,mp-849745,P-1,2.9659074469128446,0.030960546304348746,0.0,1.59552531,False,True
1653,Li2Mn(BO2)5,mp-772440,P2_1/c,2.3569687889960864,0.05186292489293898,0.9682,-0.12828487,False,True
1654,Li7V3P8O29,mp-757708,P1,2.5882394809111915,0.04371866620123921,0.5752999999999999,1.44312212,False,True
1655,Li5V4O12F,mp-759940,P2_1/c,3.12975398790004,0.05728979068181861,2.2269,0.56301688,False,True
1656,Li2AlCoO4,mp-771906,P2_1/c,3.0796539059845878,0.08248025937499914,1.2978000000000003,1.35104665,False,True
1657,Li4TiO4,mp-9172,Cmcm,2.6246173708762037,0.0,4.5573,0.03754136,False,True
1658,Li3VPCO7,mp-766587,P2_1/c,2.762179518723241,0.08759828653846302,3.2070000000000003,3.03879184,False,True
1659,Li2FePCO7,mp-768485,P1,2.7461854000949626,0.011911005520852669,2.1595,0.93256448,False,True
1660,Li3V2(O2F)2,mp-759243,C2/m,3.324830241517264,0.07272217261362535,1.2691000000000001,2.87266234,False,True
1661,Li4Co3O7,mp-1174371,C2/m,4.200891868032701,0.08814402428571189,0.238,2.40863805,False,True
1662,NaLi2CoPCO7,mp-760344,P2_1,2.922090532905009,0.028326489230765972,2.9398,1.71420533,False,True
1663,Li5V3P8O29,mp-759944,P1,2.5937186275663087,0.04127157987036956,0.01650000000000007,0.94688272,False,True
1664,Li3Fe2(SiO4)2,mp-778622,Pc,2.89107130120299,0.07339052433334103,1.9231999999999998,1.33263038,False,True
1665,Li9Mn2Co5O16,mp-1175802,P-1,4.159949170896603,0.12154125687500006,0.0,2.82267752,False,True
1666,Li2Cr(SiO3)2,mp-753129,C2/c,2.6167463704234484,0.08819316621212447,2.4339,2.4481195,False,True
1667,Li7Mn2(CoO4)3,mp-1174528,P-1,4.0901521109770504,0.07299130020833378,0.7944999999999998,2.60001407,False,True
1668,Li7FeCo3(PO4)6,mp-780179,R3,2.919622050576768,0.13781763975610328,0.0,2.14026463,False,True
1669,Li3GaGeO5,mp-17685,Pna2_1,3.6294360902282436,0.0,3.4932999999999996,0.17701393,False,True
1670,Li9Mn7O16,mp-1100529,P-1,3.921064733467226,0.03461936828125012,0.0,3.0486679,False,True
1671,Li7Ni(O2F)2,mp-1662701,P1,2.584387513840297,0.08238426113095265,0.7928000000000001,0.36837112,False,True
1672,Li4CrP6(H4O11)2,mp-759402,P2_1/c,2.217972157372922,0.0802597015959634,3.1935,1.28330496,False,True
1673,Li7Mn2(CoO4)3,mp-1174920,P1,4.1207278996122305,0.06356975874999993,0.7672999999999996,3.34666677,False,True
1674,Li8Mn(O2F)2,mp-763831,Cmc2_1,2.304447689522204,0.08644511233333407,2.4668,0.57610199,False,True
1675,Li3H24Ru(ClO2)6,mp-1182039,R-3c,1.8649641318229888,0.033544895108696515,0.0,0.50993074,False,True
1676,Li11V6O5F19,mp-1178094,P1,3.0463524564712445,0.07967013753050356,0.6718000000000002,2.29547372,False,True
1677,Li4V3P8O29,mp-760278,P1,2.527351038736692,0.046882387651513646,0.7426,0.37882399,False,True
1678,Li5Mn2CoO8,mp-1174382,P1,3.9230981825203854,0.042205354062500255,0.0,2.74330428,False,True
1679,Li7Mn5O12,mp-1646892,P-1,3.8727823972615476,0.030102412083333974,1.0485000000000002,2.65693823,False,True
1680,Li3Fe2P2(CO7)2,mp-1177673,P-1,2.677369994456272,0.04419619119565166,0.0,0.21084572,False,True
1681,Li2Cu(PO3)4,mp-761867,P1,3.223579261215082,0.09033791337717201,0.21150000000000002,2.5285519,False,True
1682,Li5Mn2CoO8,mp-1174049,C2/m,3.935320294325146,0.04816577249999998,1.0362,2.45494516,False,True
1683,Li6Ti2O7,mp-770399,P4_2nm,2.7459256728038732,0.07912195366666719,2.4848,1.33531548,False,True
1684,Li10V3Cr5O16,mp-761047,P1,3.990321185073793,0.09993498220588481,0.22939999999999916,4.89636233,False,True
1685,Li2MnO2F,mp-753352,P-1,3.5267552597187004,0.08950256166666293,1.0842999999999998,2.1794925,False,True
1686,Li6Nb3P8O29,mp-778109,P1,2.81726036837992,0.0745213947753669,0.06489999999999974,3.15709021,False,True
1687,Li4MnCo2O7,mp-1174611,P1,4.119666988436559,0.07808767999999855,1.1410999999999998,3.34020994,False,True
1688,Li9Mn2Co5O16,mp-1176271,P1,4.16907382837932,0.1142638653125001,0.0,2.69101734,False,True
1689,Li9Mn2Co5O16,mp-1175785,P1,4.263584487046383,0.06292925437500063,1.0556999999999999,2.33534249,False,True
1690,KLi6TaO6,mp-9059,R-3m,4.080479793753673,0.0,4.2725,0.75119647,False,True
1691,Li7Mn5O12,mp-1643099,P-1,3.88483753677798,0.02722909437500043,1.2079,2.54740525,False,True
1692,Li9Co7O16,mp-1175410,P-1,4.375028321096011,0.05344379875000005,0.0,2.51314345,False,True
1693,Li2Co(PO3)4,mp-705277,P2_1/c,2.886893923954033,0.01670188416666729,2.9246999999999996,1.80861606,False,True
1694,Li4Sn(BO3)2,mp-756045,Pnnm,3.0664554886698,0.07639269025640694,2.5107999999999997,2.57552668,False,True
1695,Li2VO2F,mp-1273426,P2_1/m,3.4732566954431254,0.024710992083329053,1.3762999999999996,2.96988026,False,True
1696,Li2VPO6,mp-616566,Pna2_1,2.9805812087603094,0.013692684583334724,2.8096,0.89763528,False,True
1697,Li8TiO6,mp-772521,P6_3cm,2.355379168057329,0.003524437333330077,3.9915999999999996,0.25057482,False,True
1698,Li9Mn2Co5O16,mp-1175715,P1,4.265627456978563,0.0719803184375003,0.7509000000000001,2.67295398,False,True
1699,Li3MnCoO5,mp-1232448,Cm,3.797759457152825,0.2905261504999901,0.0,2.35945334,False,True
1700,Li4NiOF4,mp-753143,I4/mmm,3.3630700767530364,0.04012423200000015,1.8989000000000003,2.70157406,False,True
1701,Li7Mn5O12,mp-1232439,P-1,3.882049589835573,0.032661624374999754,0.08309999999999995,3.03214846,False,True
1702,Li7Mn4O12,mp-764763,P1,3.65282489279983,0.04281145988405566,0.0,1.44627596,False,True
1703,Li8Ni(O2F)2,mp-1176816,P-1,2.6660199682044228,0.07725531883333492,3.2285000000000004,1.00248262,False,True
1704,Li2Ti(BO3)2,mp-770749,P1,2.578516536983075,0.07426354785712252,2.8806,0.63918372,False,True
1705,Li5NiOF5,mp-753062,P3m1,2.5537561520444636,0.07389875083333397,1.202,0.01226404,False,True
1706,Li7Mn2(CoO4)3,mp-1174483,C2/m,4.065109308566889,0.29148585624999956,0.0,2.97491452,False,True
1707,Li9Mn7O16,mp-1100537,P-1,3.9345333324179186,0.034770803281249485,0.0,3.1037108,False,True
1708,Li3Fe(BO3)2,mp-752646,P1,2.5773053807244573,0.013574351041666155,2.1759,0.45159816,False,True
1709,Li7Mn2(CoO4)3,mp-1174543,P-1,4.059680433415993,0.07491106291666672,0.8361999999999998,3.15671391,True,True
1710,Li5MnO4,mp-774621,Aea2,2.5266278323186673,0.04139521399999779,0.9751,0.88666911,True,True
1711,Li5Mn3O8,mp-1297800,C2/c,3.794512336012801,0.03515641687500004,1.1807000000000003,2.38143612,False,True
1712,Li3Co(BO3)2,mp-756735,P-1,2.496341986863057,0.07131086076388193,1.0504,-0.09744508,False,True
1713,RbLi2CdC2O6F,mp-1192391,P6_3/m,3.4598638296449047,0.0,3.2753,-0.13419881,False,True
1714,Li7Mn2(CoO4)3,mp-1175079,P1,4.055453780761912,0.1234420708333337,0.0,2.62013994,False,True
1715,Li7Mn2(CoO4)3,mp-1175072,P2,4.065715725587679,0.0589084854166666,1.6536,3.59445996,False,True
1716,Li2SnP2O7,mp-26649,P-1,3.2458238841753544,0.01978558770831551,4.0479,2.03289669,False,True
1717,Li32Mn3Cr13O48,mp-778359,P1,3.594853030117028,0.028268106666667236,1.0333999999999999,2.11262962,False,True
1718,Li2SiNiO4,mp-766710,Pc,3.225236291083071,0.020939771874999735,3.0107,2.00320935,False,True
1719,Li6V3P8O29,mp-1176913,Cc,2.5854590712353787,0.02701641354165929,1.5317999999999998,0.80218733,False,True
1720,Li2VO2F,mp-881005,Cm,3.3224624528018243,0.10259830541666304,1.0936,2.81531996,False,True
1721,Li9Mn2Co5O16,mp-1176246,P1,4.171134138840619,0.10139427312500082,0.4469999999999996,3.06836661,False,True
1722,Li4FeOF5,mp-779064,Cc,2.922375957490412,0.09979302025253123,2.7741000000000002,-0.2705873,False,True
1723,Li9Mn2Co5O16,mp-1176160,P1,4.144134222749126,0.10054378718750012,0.06630000000000003,2.79487709,False,True
1724,Li7Mn(OF)3,mp-1323692,P1,2.3166740583977554,0.7840619416666659,0.9351999999999998,1.48824128,False,True
1725,Li5AuO4,mp-675606,P-1,5.035137766470333,0.08297722799999985,2.1316,0.97612106,False,True
1726,NaLi2FePCO7,mp-1101482,P1,2.8528789409118005,0.03822619192307908,4.0317,1.92456788,False,True
1727,Li4MnCo2O7,mp-1174575,C2/m,4.090631042239162,0.09914043928571292,0.09870000000000001,3.00490324,False,True
1728,Li2CrP2O7,mp-757335,P-1,2.7774546279424084,0.047792381666694084,3.1186,2.31921379,False,True
1729,Li9Mn2Co5O16,mp-1100592,Pm,4.131133795437384,0.08035755531250022,0.6103000000000001,3.1197578,False,True
1730,Li3Mn(BO3)2,mp-770904,P-1,2.6562144893812882,0.024676139999999513,1.4244,0.74023406,False,True
1731,Li7Mn2(CoO4)3,mp-1174864,P-1,4.0796419533971156,0.06711689458333314,1.052,2.22071276,False,True
1732,Li6Cr3Fe(PO4)6,mp-770489,P1,2.974505720797499,0.041926768125002845,2.3775999999999997,1.56991421,False,True
1733,Li9Mn2Co5O16,mp-1100603,Pm,4.167384488994976,0.11290993312500053,0.1323000000000003,3.21392429,False,True
1734,Li2CoP2O7,mp-757848,Imma,2.625428337895707,0.054597005138869115,2.2452,1.1588216,False,True
1735,Li2FeSi3O8,mp-861290,P1,2.506514093334459,5.536198466607141,0.0,2.34360191,False,True
1736,Li7Mn2(CoO4)3,mp-1175034,P1,4.1419392578124485,0.06557405791666682,0.5069999999999997,2.92262445,True,True
1737,Li7Mn2(CoO4)3,mp-1174928,P1,4.089901984093542,0.0765324795833342,0.7089000000000003,3.25428868,False,True
1738,Li6Sn2B4SO16,mp-769001,Fd-3,3.2740731065974567,0.058436741637931,3.4699999999999998,1.60444823,True,True
1739,Li2HfO3,mp-2724101,Cmmm,6.157419275610841,0.0,4.0573,1.10975881,False,True
1740,Li6Mn(OF)3,mp-753452,P1,2.5416558010345605,0.0880055478846149,1.9407,0.53416027,False,True
1741,Li2Fe(CO3)2,mp-759815,P2_1/c,2.171192493386749,0.06641970681818066,3.6445,-0.14033526,False,True