,formula,mp-id,crystal system,density,energy above hull,band gap,efermi,is gap direct,theoretical
3286,Li9Mn2Co5O16,mp-1100568,Pm,4.143618444927318,0.15704998218750088,0.0,2.57580075,False,True
3287,Li6Fe(BO3)3,mp-772525,P2_1/c,2.5079705578853138,0.07048486903508078,2.0524000000000004,0.88048279,False,True
3288,Li3V2P2O8F3,mp-758819,Pnnm,2.8433943241299255,0.06009996069442991,1.9919,1.34027604,False,True
3289,Li3MnV(PO4)3,mp-764911,C2/c,3.270755575175224,0.07331796643749655,0.0,4.28766229,False,True
3290,Li3V2(O2F)2,mp-764429,P-1,3.284620288634393,0.07949570700756414,0.0,1.70138451,False,True
3291,Li9Mn2Co5O16,mp-1175791,P1,4.18804155599129,0.07428670125000014,0.7006999999999999,3.08653479,False,True
3292,Li2MnSiO4,mp-752844,I-42m,3.0638519852604458,0.018262249062498626,2.7378,2.38964532,False,True
3293,Li9Mn2Co5O16,mp-1175670,P1,4.19793664091053,0.07954407812500008,0.3874000000000004,2.47774942,False,True
3294,Li3Mn2O5,mp-1173947,P-1,3.844838683084905,0.022480499500000306,0.9430999999999998,2.67573029,False,True
3295,Li4Co2OF7,mp-850198,Cm,3.26367229611624,0.04518957785714228,0.9131,-0.34928098,False,True
3296,Li3Co2(PO4)3,mp-775012,R-3,3.167928117996286,0.08130452265624566,0.02629999999999999,1.36684989,True,True
3297,Li9Mn2Co5O16,mp-1176060,P1,4.221982559302065,0.09086846750000088,0.5587,2.770424,False,True
3298,Li7Mn2(CoO4)3,mp-1174918,P1,4.095090476947095,0.07453128499999995,0.49770000000000003,3.01541986,False,True
3299,Li5(NiO2)4,mp-780518,Cc,4.551377256327232,0.061667549117649934,0.0,3.28233739,False,True
3300,Li3VOF5,mp-801461,P1,2.8358468013135547,1.5738387460000043,0.0,0.27107547,False,True
3301,Li4MnCo2O7,mp-1174630,P1,4.1816250419117,0.09965566392857017,0.6817000000000002,2.57652562,False,True
3302,Li9V5(SiO8)2,mp-767624,P-1,3.638680724404493,0.058518640156222546,1.6405000000000003,4.20079204,False,True
3303,Li7Mn2(CoO4)3,mp-1175177,P3m1,3.951871016502251,0.2395183783333339,0.0,2.5377383,False,True
3304,Li7V2P7O24,mp-758404,P2/c,2.7087885776091642,0.06197605810417617,2.5942,1.95577549,False,True
3305,Li9Cr4(BO3)8,mp-758885,P1,2.6438174801436847,0.1049162593703512,0.47820000000000007,0.76548255,False,True
3306,Li9Mn2Co5O16,mp-1176288,P2,4.242868389692392,0.12075477625000008,0.0,2.6490645,False,True
3307,Li2AlFeO4,mp-770729,Pca2_1,2.937323518694446,0.08159620343749996,2.1424000000000003,1.38513841,False,True
3308,Li7Mn2(CoO4)3,mp-1174922,P1,4.102382992580018,0.07979678208333407,0.9466999999999999,3.36725994,False,True
3309,Li7Mn5O12,mp-1175373,P-1,3.8601973135366787,0.05017643687499973,0.5594000000000001,3.28964857,False,True
3310,Li4MnCo2O7,mp-1344252,P1,4.137129765283545,1.8491604557142844,0.0,3.09590634,False,True
3311,Li3Cr2(PO4)3,mp-774463,C2,2.964077452159347,0.04238993425000359,2.8011,1.58910656,False,True
3312,Li32Mn3Cr13O48,mp-777797,P1,3.6105105537061224,0.02810402656250055,0.9811000000000001,2.14939896,False,True
3313,Li2TiP3O10,mp-757305,P2_1/c,2.140558851826366,0.10274652084374392,0.14110000000000023,2.98371053,False,True
3314,Li6V3P8O29,mp-757400,P1,2.589409684934993,0.02348230125905104,0.7614,0.98297872,True,True
3315,Li5FeOF5,mp-777279,Cc,2.9859473064368944,0.09779936187499949,3.9724000000000004,0.84323869,True,True
3316,Li3V2(O2F)2,mp-1567479,P2_1/m,3.0945228492269576,0.053512529886352134,1.5350000000000001,1.39124781,False,True
3317,Li4HfO4,mp-756299,Cmcm,4.541896542740608,0.056924411111110906,4.224,0.05767335,False,True
3318,Li7Mn4CoO12,mp-1232447,Cm,3.7685228314642067,0.17658858927083187,0.0,2.1766362,False,True
3319,Li3Gd(NO3)6,mp-1212476,P2_1/c,2.4831252264462167,0.0,2.6228,-0.66268288,False,True
3320,Li9Mn2Co5O16,mp-1175786,P1,4.173180175798947,0.08113623843750073,0.39170000000000016,2.49156047,False,True
3321,Li9Mn2Co5O16,mp-1175534,P-1,4.273387950508912,0.10506363906250016,0.0,3.10877153,False,True
3322,Sr2Li4MnS3O2,mp-1173260,P4/mmm,3.278236710802441,0.24855740013888816,2.0078,3.48386034,False,True
3323,Li6Mn3CoO10,mp-1174363,Cm,3.849269441458951,0.08371343587499691,0.3016000000000001,3.23413598,False,True
3324,Li9Mn2Co5O16,mp-1175743,C2,4.1768751060891836,0.06839712781250018,1.1662999999999997,2.21818208,False,True
3325,Li9Mn7O16,mp-1100524,P-1,3.906418238707375,0.03229585703124993,0.0,2.99139803,False,True
3326,NaLi5Mn2P2(CO7)2,mp-772727,P-1,2.7436981824682953,0.04816516858973863,3.2874999999999996,2.04108205,False,True
3327,Li2CoSiO4,mp-758638,Pnma,3.242365702492661,0.0065315906249932,2.3830999999999998,2.25568483,False,True
3328,Li9Mn2Co5O16,mp-1100630,Cm,4.07348633691656,0.1853375496875005,0.0,2.26097435,False,True
3329,Li14Co13O28,mp-777836,P-1,4.746109191389288,0.01637451679545432,0.0,3.91533895,False,True
3330,Li7V3P8O29,mp-757654,P1,2.594679990065883,0.01905277875443101,0.0,1.95245285,False,True
3331,Li3Fe(PO4)2,mp-26575,C2/m,3.1442405810511476,0.030641763749997608,1.6401,2.30830778,True,True
3332,Li9Mn2Co5O16,mp-1175632,C2,4.138299625602611,0.0883540743750002,0.4908999999999999,2.70932414,False,True
3333,Li4MnCo2O7,mp-1174584,P1,4.2623707518188185,0.08367162142857065,0.5659999999999998,3.30001323,False,True
3334,Li2Co(CO3)2,mp-767071,P1,2.5686320166833307,0.07463656295454779,2.4383,0.27742987,False,True
3335,Li4WO5,mp-729583,P-1,5.163984500195917,3.544887575999999,0.0,3.54266908,False,True
3336,Na3Li3Fe2P2(CO7)2,mp-772931,P1,2.8704883232703122,0.0294370253846159,3.7783000000000007,1.81743065,False,True
3337,NaLi2FePCO7,mp-1667139,P1,2.8069199234142745,0.025785059038463842,3.9832000000000005,1.56734498,False,True
3338,NaLi2NiPCO7,mp-760210,P2_1,2.964652022417591,0.024832527371791535,3.5529,1.61003173,False,True
3339,Li9Mn2Co5O16,mp-1175960,P1,4.18910278081802,0.259872353125,0.26060000000000016,2.47554334,False,True
3340,Li2CoBO4,mp-771049,Pnma,3.2702146680725193,0.10595035177084089,1.1027999999999998,1.34699609,False,True
3341,Li9Mn7O16,mp-1100553,P-1,3.910953404104866,0.023977047656249972,0.9223000000000003,3.77510988,False,True
3342,Li2CrO3,mp-756005,Cmc2_1,2.8144118118934816,0.07177707624999918,1.1199999999999999,1.28862287,False,True
3343,Li7Mn2(CoO4)3,mp-1174526,C2/m,4.029785437197794,0.14034625708333337,0.0,2.66739335,False,True
3344,Li7Mn4CoO12,mp-1640193,P-1,3.948477985132086,0.06411057885416582,0.6360999999999999,3.36044865,False,True
3345,Li3Mn2O5,mp-1173961,P-1,3.845295879595775,0.053840891500000154,1.3744999999999998,2.52894455,False,True
3346,Li2Fe(CO3)2,mp-1568135,Fdd2,2.45282931796429,0.04040492909090876,4.114199999999999,0.1054105,True,True
3347,Li3VO3F,mp-764917,P1,3.1814453654541643,0.0864770759375002,1.4804,2.20804784,False,True
3348,Li6Cr3P8O29,mp-26976,P1,2.581951334076109,0.04345956388134642,0.2506,0.38306092,False,True
3349,Li2PtO2,mp-1177862,Immm,7.317822547424058,0.029056208222221436,1.5326,4.34328276,False,True
3350,Li4AlCr3O8,mp-803574,P-1,3.916167471838582,1.4583681495312426,0.0,5.68709639,False,True
3351,Li7La3Hf2O12,mp-1198622,I4_1/acd,6.1001074966656645,0.00941028195312743,4.3384,7.75474798,False,True
3352,Li3Cr(BO3)2,mp-760261,P2_1/c,2.6946119941795996,0.03618951020832828,3.0780000000000003,1.04987166,False,True
3353,Li6CrSn3(PO4)6,mp-771364,P1,3.4236230986224734,0.08462166580207953,1.9426,3.42387802,True,True
3354,Li6Mn(FeO3)2,mp-1305328,P1,3.595258266352354,0.04749182508333227,2.6506999999999996,2.18776166,True,True
3355,Li3Cr2(PO4)3,mp-26079,P2_1/c,2.9459377261029474,0.005214419500003231,2.8178000000000005,1.49206318,False,True
3356,Li4Mo3O8,mp-554485,R-3m,4.619779117025487,0.08032732766666495,0.0,4.10409004,False,True
3357,Li5MnO3F,mp-1318721,P2_1,2.451417466550961,0.07346829383333198,2.5909000000000004,0.7685054,False,True
3358,Li6VCrP2(CO7)2,mp-756728,Pm,2.7092465224251865,0.0800791990144285,1.9883000000000002,3.48576198,False,True
3359,Li4AlCr3O8,mp-755675,C2/m,3.8982112984867423,0.008057755781242903,2.9055,3.32495201,True,True
3360,Li3CrBPO7,mp-768576,P2_1/m,2.7926190210373605,0.07654130846152629,3.1695999999999995,1.27832658,False,True
3361,Li2VO2F,mp-759139,P1,3.331139347419372,0.09734629999999544,1.3416000000000001,2.45337806,True,True
3362,Li6V3P8O29,mp-1176932,P1,2.5785743238227186,0.026548797563398452,0.3980999999999999,1.99986135,True,True
3363,Li7Mn4CoO12,mp-1650471,C2,4.011175911610889,0.02764613822916573,0.6357999999999997,3.67042967,False,True
3364,Li4MnCo2O7,mp-1174824,Cm,4.116350368315603,0.11740313214285614,0.026399999999999757,3.04458642,False,True
3365,Li9Co7O16,mp-1175506,P2/m,4.5433544177184375,0.024115093749999872,0.024299999999999766,2.85177727,True,True
3366,Li2CrSiO4,mp-758595,Pna2_1,2.8948838622717377,0.09601085979166246,1.3058999999999994,3.08291925,False,True
3367,Li2Sn(OF3)2,mp-725456,C2/m,3.155097363360294,0.4459675184090912,0.684,-1.46765308,False,True
3368,Li2MnO2F,mp-753733,Pnma,3.3776675380001744,0.04275090041666196,2.1464,1.19708046,False,True
3369,Li6MnV3(PO4)6,mp-1176980,Pc,2.9011320804382876,0.015913813015608014,0.6465999999999998,1.81065994,True,True
3370,Li4MnCo2O7,mp-1174686,P1,4.189832047937296,0.07334761071428364,0.8792999999999997,3.52286653,False,True
3371,Li2MnO2F,mp-753659,Cmcm,3.423324648008858,0.07454151624999561,0.0,1.75534447,False,True
3372,Li9Cr3P8O29,mp-26975,P-3c1,2.6854125735618735,0.0,2.8701,1.16657136,False,True
3373,Li2MnP2O7,mp-1651415,Imm2,2.5235858105858755,0.08227992895833225,2.4757,3.57806993,False,True
3374,Li3CrO4,mp-850964,Cmc2_1,2.99551190956589,0.08708186000000051,1.3019999999999998,1.44910028,False,True
3375,Li4MnCo2O7,mp-1174453,Cm,4.061811342529191,0.21494703214285593,0.0,2.39074976,False,True
3376,Li2FePCO7,mp-768624,P1,2.7178891088430652,0.016128446770852456,2.4417999999999997,0.57060753,False,True
3377,Li12Mn2O9,mp-753075,P1,2.3744036010778364,0.06953926391304055,0.724,0.84221032,False,True
3378,Li2VBPO7,mp-771701,P2_1/m,2.5043577137876145,0.09141758413691026,1.5137,0.46451037,False,True
3379,Li2CrPCO7,mp-25455,P2_1/m,2.7019274829051216,0.017207058020833443,2.8785,0.72757898,False,True
3380,Li2Cr(SO4)2,mp-850862,Pbca,2.753481190966905,0.03595240469780059,2.2485999999999997,2.47035617,True,True
3381,Li7Mn2(CoO4)3,mp-1174515,C2/m,4.096342598618845,0.059657265000001125,1.1526999999999998,3.54999548,False,True
3382,Li4V3P8O29,mp-1177214,P1,2.507012642147066,0.0497694753787874,0.5535000000000001,0.34645597,False,True
3383,Li4Fe(OF)2,mp-752518,C2/m,2.677049227809239,0.09351094166666574,2.6579,0.39677195,False,True
3384,Li9Mn2Co5O16,mp-1100632,Cm,4.133872080716902,0.12332612843750024,0.0,2.84113416,False,True
3385,Li9Mn2Co5O16,mp-1100683,Cm,4.186591790559644,0.06985825406250079,0.6683999999999997,3.10402767,False,True
3386,Li9Mn2Co5O16,mp-1176015,P1,4.219162845174041,0.1001344765625003,0.04919999999999991,3.04958279,False,True
3387,Li6Mn2OF11,mp-754082,P1,3.0185838008617165,0.0393263783958373,1.1246,-0.6206635,False,True
3388,Li6MnV3(PO4)6,mp-1177036,P1,2.9250516458509814,0.056055963015607446,0.4018999999999999,2.18054173,False,True
3389,Li4Mn3O7,mp-1174387,C2/m,3.8819205783260307,0.04311232785714303,0.8574999999999999,2.85748112,False,True
3390,Li8VO5F,mp-752889,P1,2.563470276137475,0.04911687450000013,2.1185,1.95530826,False,True
3391,Li9Co7O16,mp-1175392,P2/m,4.385104517230092,0.05124259406249987,0.48750000000000027,3.17795209,False,True
3392,Li4MnCo2O7,mp-1174447,Cm,4.012702018440152,0.19480666249999867,0.0,2.21583801,False,True
3393,Li2SiSnCO7,mp-770647,P2_1/m,3.2500772045821575,0.0839646874999973,3.0435999999999996,1.26813614,True,True
3394,Li3BiO4,mp-774702,P2/c,5.980784811566865,0.0,1.3994999999999997,1.94786767,False,True
3395,Li5Co3O8,mp-1174128,P-1,3.962091670480224,0.10855402874999776,0.0,1.98915961,False,True
3396,Li2VO3F,mp-801613,P1,3.087828696015025,2.0257112982142846,0.0,1.34786954,False,True
3397,Li3Mn(PO4)2,mp-881278,P2_1,2.599319920319823,0.029951626607193305,1.3018,1.80820769,False,True
3398,Li4CoO3F,mp-807569,P1,2.7355844678175014,3.373329766666663,0.0,2.08211637,False,True
3399,Li7Mn4CoO12,mp-1175288,Cm,3.943908041928445,0.056603636354165765,1.2319999999999998,2.56786908,False,True
3400,Li4TiCrO6,mp-753412,C2/c,3.45600516998629,0.01787287062499754,0.9066000000000001,2.24734748,False,True
3401,Li9Mn2Co5O16,mp-1175746,P1,4.281214855634696,0.06710071718750044,0.4934000000000003,2.69495733,False,True
3402,Li9Mn7O16,mp-1100512,P-1,3.89798661503296,0.0425956842187496,0.5915999999999997,2.75223655,False,True
3403,Li3Cr(BO3)2,mp-760283,P2_1/c,2.8626778712168357,0.028351271041661796,2.8884,1.60658311,False,True
3404,Li9Mn2Co5O16,mp-1175861,P1,4.228211882780092,0.08432272937500063,0.45550000000000024,2.837054,False,True
3405,Li7V3P8O29,mp-757537,C2,2.5877741030332793,0.014064540031027306,0.036499999999999755,2.59011276,False,True
3406,Li4MnCo2O7,mp-1174696,P1,4.162906620711718,0.07182276785714148,0.6412999999999998,3.08027382,False,True
3407,Li7Mn4(P2O7)4,mp-1176911,P2_1,2.9279652634354356,0.016797295904227738,0.012699999999999712,3.62314828,False,True
3408,Li9Mn2Co5O16,mp-1175795,P1,4.191442687288362,0.15679784687500042,1.6593,2.17846385,False,True
3409,Li9Mn2Co5O16,mp-1100732,P2/m,4.124232656019035,0.11980638312500069,0.0,2.33684482,False,True
3410,Li8Mn2O9,mp-773132,P-1,2.987261047242838,0.06717556947368308,0.0,0.75946932,False,True
3411,Li9Mn2Co5O16,mp-1176291,C2/m,4.1847049464138415,0.09361087375000032,0.5577000000000001,2.73861404,False,True
3412,Li5V3P8O29,mp-765086,P1,2.564089401870517,0.04078320375925859,0.0,1.20184957,False,True
3413,Li9Mn2Co5O16,mp-1176001,P1,4.2280075541430495,0.0773770265625,0.4474999999999998,3.43335336,False,True
3414,Li3CrP2HO8,mp-762840,P-1,2.9104379028531193,0.04723190558888657,2.4359,3.57841895,False,True
3415,Li3CoPCO7,mp-25458,P2_1/m,2.8738879602106255,0.03933515884615346,2.4231,1.57390396,False,True
3416,Li6Mn3CoO10,mp-1174822,P1,3.9543853909100974,0.06453182987499773,0.5607000000000002,2.8286088,False,True
3417,Li32Ti11Cr5O48,mp-777936,P1,3.4151198999655112,0.011648175703123265,0.0,2.54282686,False,True
3418,Li7Co5O12,mp-1174345,C2/m,4.1456946087529465,0.09854598624999777,0.0,2.29240189,False,True
3419,Li2Co(CO3)2,mp-1567457,P1,2.5822363802892423,0.04460187022727524,2.7698,0.44960347,False,True
3420,Li5Fe2P2(CO7)2,mp-770138,P1,2.7310893040460646,0.03252936255000627,1.4098,1.76002334,True,True
3421,Li3Fe2(OF)3,mp-1177682,R3m,3.209610182495757,0.09250975727272692,0.984,1.14470894,False,True
3422,Li2TiO3,mp-1407905,P-1,3.4130154192688678,0.833967552500007,0.5638999999999998,4.06338971,False,True
3423,Li4Ni3O6F,mp-761276,C2/m,4.39841556118515,0.06306027857142649,0.0,2.78457182,False,True
3424,Li2NiP2O7,mp-1377836,P-1,3.140902890691299,2.3320505268055527,0.0,3.4459691,False,True
3425,Li24Ti7Cr5O36,mp-768420,P1,3.433203361465993,0.019653490243053184,1.2496,3.28487481,False,True
3426,Li2V(Si2O5)3,mp-767204,P2_1,2.5896175439269826,0.059289653125000896,2.0913,1.66761435,False,True
3427,Li2CoH8(SO6)2,mp-770611,P2_1/c,2.405422144905796,0.07413622970000056,3.2881,0.48117788,True,True
3428,Li5Mn2P2(CO7)2,mp-768858,P1,2.715929333440027,0.04412483229999964,0.0,1.78384965,False,True
3429,Li7V3P8O29,mp-1176852,P1,2.5712514323186006,0.08784864928634573,0.11769999999999992,1.25051072,False,True
3430,Li5Co3O8,mp-1174048,P2/m,4.0051149781107025,0.08597519749999716,0.09030000000000005,2.24730111,False,True
3431,Li9Fe4(PO5)4,mp-1176795,P1,2.7372977730848134,0.08052284236487672,0.24760000000000004,1.9840196,False,True
3432,Li9Mn2Co5O16,mp-1175406,P-1,4.220677812915058,0.0785582018750004,1.1124,3.58579454,True,True
3433,Li5Mn2CoO8,mp-1174006,P-1,3.9364367526112947,0.05074697781250048,1.0031999999999996,2.59512756,False,True
3434,Li6Ti3Fe(PO4)6,mp-1176962,P1,2.8474251647125373,0.0768751524212945,0.05149999999999988,4.29044146,False,True
3435,Li9Mn4(BO3)8,mp-758924,P1,2.7683031588481155,0.09329356986667925,0.0,1.09308221,False,True
3436,Li4Fe3(SiO4)3,mp-1177429,P2_1/c,2.6073225494034933,0.09162576045454607,1.7632999999999999,2.86530831,False,True
3437,Li2Mo(PO4)2,mp-704197,P2_1,3.3146865317133583,0.04583169057694292,1.6945999999999999,2.11374886,False,True
3438,Li2VOF3,mp-765507,P4_1,2.959128870752419,0.04912050625001374,2.3625000000000003,0.96866224,False,True
3439,Li6MnV3(PO4)6,mp-1176989,P1,2.860471752913393,0.03967326989060904,0.46809999999999996,1.91613952,False,True
3440,Li3P2WO9,mp-757576,P2_1/c,3.910877713297509,0.048755114333376426,3.3444000000000003,1.42617958,False,True
3441,Li5WNO4,mp-772397,Cmc2_1,4.344079333796184,0.03465361626721908,3.2687000000000004,0.88742481,False,True
3442,Li9Co7O16,mp-1175571,C2/m,4.41525042087176,0.04573105781249964,0.31919999999999993,3.10822601,False,True
3443,Li2Cr(PO3)5,mp-704942,Pc,2.436918709381796,0.04396030231884307,2.1797,0.46500542,False,True
3444,Li9Mn7O16,mp-1100549,P-1,3.8958188596035823,0.024651261718750206,0.8886000000000003,3.57076046,False,True
3445,Li7Mn5O12,mp-1175359,C2/m,3.8645222572171742,0.04394464666666664,0.9062000000000001,2.95871407,False,True
3446,Li5VCr3O8,mp-760333,P6_3mc,3.9667237290350448,0.08450655735294088,1.2528000000000006,4.48283209,False,True
3447,KNa2Li3Fe2(Si2O5)6,mp-16283,P6/mcc,2.665494654194039,0.0,4.6926000000000005,1.40214476,False,True
3448,Li4MoO5,mp-1415265,P-1,3.653962950205001,1.4128408279999993,0.0,3.6314535,False,True
3449,Li7Co5O12,mp-1174265,P-1,4.237073040892321,0.05366983333333053,0.0,2.11476573,False,True
3450,Li3Cr(CO3)3,mp-765400,Ama2,2.5715347202594434,0.05864357562499656,2.1942,0.88990382,False,True
3451,Li2SiNiO4,mp-1177859,C222_1,3.119828130317649,0.03769205249999974,3.3961000000000006,1.87121678,False,True
3452,Li2Fe(SiO3)2,mp-753634,Fdd2,2.8120238224621255,0.011557355000001657,4.6142,2.06161382,True,True
3453,Li9Mn2Co5O16,mp-1176037,P1,4.16292385258928,0.1386971896875009,0.0,2.52811131,False,True
3454,Li2VO2F,mp-763190,Pm,3.3154439217841913,0.12810052666666305,1.1196000000000002,3.01052247,False,True
3455,Li6NiO4,mp-756411,Pmmn,2.683581467470703,0.020854933636362816,2.7348999999999997,1.0974179,False,True
3456,KLi4FeO5,mp-756561,P-1,2.9332391585133792,0.04711480227272524,0.0,0.68278051,False,True
3457,Li2WO4,mp-18933,I4_1/amd,5.890745960339656,0.005107584464285608,3.9258,0.2391168,False,True
3458,Li7Fe(O2F)2,mp-850795,P1,2.488510622836097,0.09523757357143392,2.6388000000000003,2.96026815,False,True
3459,Li2VH2OF5,mp-861531,P1,2.425607505568067,0.06750883477273018,2.3994,-0.45127842,False,True
3460,Li3Fe2(PO4)3,mp-26069,P2_1/c,3.0795078393138318,0.006166910625005961,2.4969,1.21330181,False,True
3461,Li9Mn2Co5O16,mp-1175763,P-1,4.179513462960794,0.13637181187500058,0.0,2.65653567,False,True
3462,Li3MnV(PO4)3,mp-774954,C2,2.870635708925028,0.0709716718124973,0.0,1.99936233,False,True
3463,Li4MnCo2O7,mp-1174832,Cm,4.122048282277406,0.10363387499999899,0.0,2.23913514,False,True
3464,Li7Co5O12,mp-1174245,P-1,4.122346422728507,0.10447579999999679,0.5151000000000003,2.17698721,False,True
3465,Li3Fe2P2(CO7)2,mp-768557,Pc,2.6448145316841267,0.045428130978259595,0.0,0.13590298,False,True
3466,Li6V3P8O29,mp-1176906,Cc,2.570651904328651,0.023491958215572595,1.4649999999999999,0.70367751,False,True
3467,Li5Mn3O8,mp-1315117,P-1,3.7969699485841235,0.025730658125000083,0.7046000000000001,3.48612308,False,True
3468,Li6Mn3V(PO4)6,mp-1177007,P2_1,2.928089588577074,0.020065653875008138,0.01670000000000016,1.94034706,False,True
3469,Li9Mn2Co5O16,mp-1176313,P2,4.206246789339976,0.09732295062500018,0.0,2.63326746,False,True
3470,Li3Ni2(CO3)4,mp-757402,P2_1,2.44667691098138,0.14244286074404844,0.6515,0.00072153,False,True
3471,Li3Bi(PO4)2,mp-778460,P2_1/c,4.350387882412151,0.05959370535714292,4.040900000000001,2.32563997,True,True
3472,Li7Mn4CoO12,mp-1175198,P1,3.9798398624158464,0.03182826760416546,0.6557999999999997,3.5434019,False,True
3473,Li4Ti3O8,mp-755266,C2/m,3.3614483978861744,0.0582677606666655,1.8915999999999997,1.81566418,False,True
3474,Li4MnCo2O7,mp-1174436,Cm,3.9966523272248398,0.20526706499999836,0.0,2.24872934,False,True
3475,Li7V3P8O29,mp-760789,C2/c,2.6054897513180237,0.021003157903367153,0.8631999999999997,2.15443211,True,True
3476,Li3VOF5,mp-760816,P1,2.8358466771873747,0.016599392750004327,2.1558,-0.25077736,False,True
3477,Li2V(OF)2,mp-759885,P2/c,3.0931473947365364,0.08794627250000353,1.5585999999999998,0.73730841,False,True