,formula,mp-id,crystal system,density,energy above hull,band gap,efermi,is gap direct,theoretical
1163,Li7Mn2(CoO4)3,mp-1174572,C2/m,3.9232860576021995,0.22031944750000054,0.0,2.18496688,False,True
1164,Li6MnV3(PO4)6,mp-1176981,P1,2.892271261073314,0.056548660015608654,0.4280999999999997,2.44316686,True,True
1165,Li5Fe2(BO4)2,mp-760269,Pc,2.6613621816362274,0.05944818367646931,2.0834,1.15774052,False,True
1166,Li2FeSiO5,mp-1304562,P4/nmm,3.189381661977648,0.08698800787036554,0.0,1.46326053,False,True
1167,Li2MnSiO4,mp-783909,P2_1/c,2.964771576562461,0.008895123749999456,2.5844000000000005,1.992114,False,True
1168,Li3MnCoO5,mp-1174053,C2/m,3.99954158887847,0.051362141999989674,1.6399,1.99150333,False,True
1169,K2Li2NiO4,mp-773004,P1,2.792812714199292,0.07464850629629183,0.012699999999999989,0.1826819,False,True
1170,Li9Mn2Co5O16,mp-1176319,P1,4.175417732514511,0.10995012375000002,0.0,3.04650132,False,True
1171,Li21V20O40,mp-531342,I-4,4.118609723944174,0.038569821296295714,0.1407999999999996,5.43590956,False,True
1172,Li9Mn2Co5O16,mp-1176254,P1,4.157356067209474,0.12963547906250028,0.0,2.48203169,False,True
1173,Li3Cu(PO4)2,mp-504348,P1,2.6580248947455907,0.054574567589284584,0.031,0.20691119,False,True
1174,Li5Cr4O8,mp-849547,Cmc2_1,3.9381693191437313,0.1013657600000002,1.1098999999999997,4.46828764,False,True
1175,Li2Cr(PO3)4,mp-777104,P2_1/c,2.303191244660656,0.06926615204043518,3.4608,1.1678477,False,True
1176,Li4Co2C4SO16,mp-776275,F222,2.60838751117908,0.09878146283949807,0.0041999999999999815,1.35812355,False,True
1177,Li7Mn4CoO12,mp-1175262,P1,3.890730865130139,0.08919703177083171,0.0,2.63421177,False,True
1178,Li5Ni2(PO4)3,mp-761038,P-1,3.064666405607977,0.055630615454543175,4.0388,1.58611801,False,True
1179,Li3GdO3,mp-1177660,P-31c,4.634516563395292,0.05026264369047606,3.5829999999999997,1.10173033,False,True
1180,Li2BiO3,mp-769002,Cc,6.376905886943409,0.031968037708326236,0.0,3.90126186,False,True
1181,Li7Mn5O12,mp-1642266,P1,3.8772486815564506,0.026968151458333978,0.6751999999999998,3.51387781,False,True
1182,Li2SiNiO4,mp-1648601,P1,3.2883167040260735,0.07369501125000077,3.3765,5.28146316,False,True
1183,Li9Mn2Co5O16,mp-1100700,P2/m,4.1447838249185915,0.09244246531250067,0.0,2.57189117,False,True
1184,Li17Fe4(CO3)16,mp-882899,P1,2.31611772048522,0.05852675043382227,0.0,-0.06356087,False,True
1185,Li2CrP2O7,mp-780964,P-1,2.8164928951283783,6.139618722916692,0.0,3.25170878,False,True
1186,Li9Mg12Fe(PO4)12,mp-745203,P1,2.3361866855638826,0.9152167898932948,0.0,1.8247326,False,True
1187,Li2CoCSO7,mp-1575892,P-1,2.668257266580679,0.062480942291671226,2.8551,0.75824953,False,True
1188,Li5V3P8O29,mp-851088,Cc,2.5625755889085995,0.03784860153703562,1.1904,0.52612234,False,True
1189,Li4Mn3O7,mp-1174275,P-1,3.8930089396909326,0.03275003678571409,0.7262,2.8759564,False,True
1190,Li4MnCo2O7,mp-1174479,Cm,4.072394815663692,0.1341801253571413,0.0,2.53966219,False,True
1191,Li5Mn2Co2(PO4)4,mp-1177107,P1,3.3593691780098585,0.0932772789655143,0.046499999999999986,4.81956048,False,True
1192,Li3(CuO2)2,mp-1222709,Cm,4.077147772199772,0.010326508888889308,0.0,2.33857477,False,True
1193,Li3Mn2(PO3)7,mp-780898,P-1,2.6813663837767137,0.08312996815659268,4.0146,1.49202672,False,True
1194,Li9Mn2Co5O16,mp-1175997,P1,4.1871675718746895,0.19296480468750055,0.3309000000000002,2.55639731,False,True
1195,Li5V3P8O29,mp-1177165,P1,2.5511285422026218,0.034058738981480374,1.0487,0.38661235,False,True
1196,Li12V3CoP4(CO7)4,mp-766588,Pm,2.7260803751693388,0.06647022825721205,0.8535999999999997,3.42836136,False,True
1197,Li2CoPO4F,mp-25390,P1,3.2779599627600122,0.05320909666666651,2.8292,1.61445398,False,True
1198,Li9Mn2Co5O16,mp-1175750,P1,4.17978360590516,0.0777886234375007,0.9542000000000002,2.44906959,False,True
1199,Li2Fe(PO4)2,mp-762856,Cc,2.897130096362471,0.08497740533653708,0.0,0.74877371,False,True
1200,CsLi7(NiO3)2,mp-754136,C2/m,3.38102758041706,0.11600699656250058,2.4418,1.09551163,True,True
1201,Li3Ni(OF)2,mp-1290913,C2/c,3.498075408019743,0.08669485260416643,0.33340000000000014,1.6193279,False,True
1202,Li5TiV3O8,mp-759911,P2_12_12_1,3.7775980359009305,0.10148203063725347,0.6277999999999997,4.89735533,True,True
1203,Li2NbOF5,mp-755505,Cm,3.5402380857119438,0.008421649027780198,3.7382999999999997,-1.38892481,False,True
1204,Li32Mn13Cr3O48,mp-777837,P1,3.7120380477220465,0.014822089010409378,1.3448999999999998,1.85643965,True,True
1205,Li3Co2(SiO4)2,mp-764452,P1,3.0332316504643493,0.053800125333332005,0.0,1.79146869,False,True
1206,Li9Mn2Co5O16,mp-1176025,P1,4.180264634860928,0.0945093131250001,0.0,2.49659039,False,True
1207,Li3BiO3,mp-778604,I4_1,5.006693615851912,0.09346444053571368,2.5101999999999998,1.57090058,False,True
1208,Li3Mo2(PO4)3,mp-27003,R-3,3.329389230876027,0.0,3.6982,2.29302037,False,True
1209,Li9Mn2Co5O16,mp-1100589,Pm,4.1287184158193195,0.12908085437500016,0.0,2.53540951,False,True
1210,Li3Fe(PO4)2,mp-26773,P2_1/c,3.141623438559383,0.035461988035711656,1.9049999999999998,2.06177519,True,True
1211,Li9Mn2Co5O16,mp-1175838,P1,4.196274467778519,0.08839027656250042,0.4518,2.54601612,False,True
1212,Li2CoO3,mp-1173894,C2/m,3.8447229924878394,0.09515469416666633,0.0,2.08701896,False,True
1213,Li9Mn2Co5O16,mp-1176133,P1,4.169511363020169,0.10050872187500026,0.1339999999999999,2.76590249,False,True
1214,Li7Mn2(CoO4)3,mp-1174955,P1,4.065830238439094,0.06389714625000043,0.7160000000000002,2.890735,False,True
1215,Li4IO3,mp-1189189,Pmmn,2.835365074513747,0.3987028593749997,0.0,1.05412612,False,True
1216,Li4MnCo2O7,mp-1174423,P-1,4.120187146893488,0.08826057321428493,0.7761,2.39616717,False,True
1217,Li9Mn2Co5O16,mp-1375549,P1,4.231198039327942,1.0097017265625006,0.0,3.44270401,False,True
1218,Li2Al2FeO6,mp-1276783,C2,3.500943656239278,0.08191883857142646,0.03810000000000002,3.44891094,False,True
1219,Li6V3P8O29,mp-772112,P1,2.59487838460577,0.02651933397644246,0.9861,0.92966215,False,True
1220,Li2FePHO5,mp-851030,P2_1/c,2.79845185272173,0.056638969624996705,3.3896,1.50395782,False,True
1221,Li2Cr(PO4)2,mp-779887,P-1,2.7630188491000336,0.05748362834249221,0.0363,0.83233273,False,True
1222,Li3SbO3,mp-756908,P2_13,3.4437724573925084,0.09559286499999775,3.2818,2.16181982,False,True
1223,Li4Fe2(PO4)3,mp-1177430,P-1,3.004826295583766,0.03630375154761367,2.1513999999999998,1.80476555,False,True
1224,Li6MnV3(PO4)6,mp-778215,R3,2.8705975695343375,0.030101106140609346,0.13640000000000008,2.18916788,False,True
1225,Li4ZrO4,mp-756344,Cmcm,3.0322399786894842,0.03700534277777923,4.3207,-0.03715937,False,True
1226,Li2VO2F,mp-1272911,P-1,3.445471481399066,0.0551588745833298,1.6802000000000001,2.90984919,False,True
1227,Li6Co5(P2O7)4,mp-769575,P-1,3.328839142855233,0.015354510620575468,2.627,4.9605665,True,True
1228,Li3VO3F2,mp-761111,P1,2.5406820792070635,0.11161467749999865,2.7756999999999996,1.72467272,False,True
1229,Li9Mn2Co5O16,mp-1176172,P1,4.154591113082868,0.10821630625000012,0.0,2.49676562,False,True
1230,NaLi2FePCO7,mp-756248,P-1,2.8260477146464322,0.024180911153847795,3.951,1.82171421,False,True
1231,Li9Mn2Co5O16,mp-1175624,P-1,4.175015024911859,0.07480587750000023,1.2252999999999998,2.14584445,False,True
1232,Li3P3(WO6)2,mp-849315,P2_1/c,4.401193847296036,0.05003701274999717,3.5045999999999995,2.24135444,False,True
1233,Li24Mn7Cr5O36,mp-769012,P1,3.65957001629661,0.031736528958333565,1.127,1.98652272,False,True
1234,Li4V2(SiO4)3,mp-770256,R-3c,2.906025477904511,0.08993359833333248,1.3085,2.12760613,False,True
1235,Li5FeO4,mp-780207,P1,2.483619974141825,0.05727896374999997,2.1293,0.50884951,False,True
1236,Li3Al2FeO6,mp-770589,P2_1/c,3.0858488177521934,0.06140896541666674,1.8725999999999998,4.7014171,False,True
1237,Li6V3P8O29,mp-760182,P-3c1,2.595444872728451,0.01824750038948597,0.0,1.21004617,False,True
1238,Li6Ni3P6WO24,mp-757643,P1,3.3885570224132584,0.08183326478124808,1.7706000000000002,1.43714219,False,True
1239,Li2Sn(BO3)2,mp-759667,P2_1,3.3837126774053896,0.05792606090908947,3.2075000000000005,1.37146226,True,True
1240,Li24Mn11CrO36,mp-770668,C2,3.7320135991861063,0.0066056421527900255,1.24,2.05943573,False,True
1241,Li4V3P8O29,mp-760176,P1,2.4969073440940845,0.04416939946969567,0.571,0.35429326,False,True
1242,Li6Mn3CoO10,mp-1174770,P1,3.9663881318723915,0.044870262874997735,0.5697000000000001,2.88575792,False,True
1243,Li9Mn2Co5O16,mp-1176169,P1,4.125204924542954,0.1018109503125002,0.04360000000000008,2.70266084,False,True
1244,Li3V2P4(HO8)2,mp-781078,P2_1,2.9110284769286143,0.06361818111111184,0.9395000000000002,2.01208703,False,True
1245,Li2VOF4,mp-761267,Cmc2_1,2.7608575080448974,0.008782866875000295,1.5987,-1.0091868,False,True
1246,Li5Fe3(OF5)2,mp-1177125,P1,3.2583717272778903,0.08299885669445484,1.7943000000000002,0.23492381,False,True
1247,Li7Co5O12,mp-1174391,P2/m,4.209607295947527,0.04423511416666415,0.7082000000000002,2.88551944,False,True
1248,Li2Cr(Si2O5)3,mp-775302,Cmce,2.611962677178997,0.047379176446756155,3.0716,1.13871819,True,True
1249,Li9Mn2Co5O16,mp-1175673,P-1,4.110723709971071,0.13393487843750052,0.0,2.35447477,False,True
1250,Li2MnCSO7,mp-780526,P2_1/m,2.4943495918785548,0.0681243956250066,3.8191999999999995,0.96627996,False,True
1251,Li10Mn3Cr3(FeO8)2,mp-777063,P1,4.008873975849625,0.07268486073528813,0.5476999999999999,4.06587949,False,True
1252,Li10Mn3Cr3(CoO8)2,mp-780494,P1,4.112241049881459,0.07185928848345657,0.9534000000000002,3.25843453,False,True
1253,Li2Mn(SiO3)2,mp-759238,Pmn2_1,2.9330435380828015,0.07809116371212,2.7600000000000002,3.10052693,True,True
1254,Li3MnCoO5,mp-1173985,P-1,3.993197857222745,0.11595389749998919,0.06410000000000027,2.61700606,False,True
1255,Li9Mn2Co5O16,mp-1175590,P1,4.255158420613643,0.07780770906250023,0.9770000000000003,2.55764745,False,True
1256,Li3FeO4,mp-760335,Cmmm,3.361833400040883,0.05731869249999999,0.0,1.17101984,False,True
1257,Li3MnCoO5,mp-1173974,P-1,3.9817952057561414,0.11913255799998979,0.0,2.64548733,False,True
1258,Li6MnO3F2,mp-758808,C2/c,2.433826041259093,0.10409608527777792,2.1359,1.14228615,False,True
1259,Li6CrO6,mp-753796,Cc,2.093865778044325,0.081690375897435,0.22299999999999998,0.2783449,False,True
1260,Li9Mn2Co5O16,mp-1176210,P1,4.135781409120021,0.12132132500000026,0.18109999999999982,2.65368581,False,True
1261,Li9Mn2Co5O16,mp-1175639,P-1,4.1329552881456175,0.1248797418750005,0.14539999999999997,2.70318029,False,True
1262,Li24Ti7Cr5O36,mp-768405,P1,3.4322074585575137,0.013086423298608096,1.2939000000000003,2.19885435,False,True
1263,Li9Mn7O16,mp-1100502,P-1,3.9247755620196063,0.04764656359374975,0.5059999999999998,2.89099326,False,True
1264,Li2VSi2O7,mp-765964,P-1,2.9889331455518966,0.06092192416666542,1.3048000000000002,2.45556299,False,True
1265,Li3VSiO5,mp-861563,P-1,3.5022649256975042,0.09718690749999848,1.6445999999999996,4.44242015,False,True
1266,Li4V3P8O29,mp-780652,P1,2.530899831322114,0.047629968787877175,0.8056999999999999,0.42469276,False,True
1267,Li9Mn7O16,mp-1100487,C2/m,3.8879559027816764,0.04114343671874998,1.2325,3.86951014,False,True
1268,Li2MnO3,mp-1173928,C2/m,3.682199936280575,0.0575089533333335,1.3173,2.48330438,False,True
1269,Li4Co3OF11,mp-754688,P1,3.5024098305708784,0.06302430032894879,0.6954,-0.83524192,False,True
1270,Li7Mn2(CoO4)3,mp-1175059,P1,4.055488273666667,0.11103075875000012,0.0,2.73766307,False,True
1271,Li7Mn4CoO12,mp-1175299,P2/m,3.844838367127324,0.11324039218749782,0.0,2.51252172,False,True
1272,Li2MnPO4F,mp-771918,P2_1/c,3.1251572235636806,0.02943525652777712,3.5992999999999995,2.21553639,True,True
1273,Li5V3P8O29,mp-1177250,P1,2.5531221603330794,0.04030908120370302,0.006899999999999906,1.27536364,False,True
1274,Li7Co5O12,mp-1653728,P2,4.280481933063055,0.04180308124999765,0.41270000000000007,2.25974346,False,True
1275,Li5V3P8O29,mp-1177058,P1,2.5354390298525646,0.032815288537035414,0.6916000000000001,0.50748516,False,True
1276,Li7Mn4CoO12,mp-1175171,P-1,3.9636299734747564,0.06095273635416465,0.0,2.73112936,False,True
1277,Li5Fe4(P2O7)4,mp-849492,P1,3.0237870897989003,0.04866716837037366,1.4982,1.67772924,False,True
1278,Li3Co2O5,mp-1173983,C2/m,4.099357236874832,0.09579523100000031,0.3162999999999996,2.20185113,False,True
1279,Li5Co3O8,mp-1174037,P-1,4.268953458237364,0.0540892562499975,0.0,2.97196235,False,True
1280,Li3Mn2(P2O7)2,mp-1177698,P1,2.9595070440235682,0.023256951195651965,0.20320000000000005,1.76018533,False,True
1281,Li12Mn3FeP4(CO7)4,mp-767262,Pm,2.731008686867152,0.05336297317307892,3.6464,2.18918678,False,True
1282,Li3Fe2OF5,mp-773547,C2,3.4533688743567676,0.09169224363636097,2.7437999999999994,1.39046979,False,True
1283,Li3Ni2(PO4)3,mp-26437,P2_1/c,3.1187379247996536,0.06962380214582886,0.0,1.54296641,False,True
1284,Li2Co(SO4)2,mp-1194281,P2_1/c,2.8164416705460114,0.0,3.2144000000000004,0.44922093,False,True
1285,Li2FeOF3,mp-752830,C2/m,3.1274453574638836,0.08482292682538617,1.9963,-0.74018718,False,True
1286,Li11Mn6O16,mp-779771,P1,3.7298929884588867,0.05005560954544919,0.0,3.02474279,False,True
1287,Li5Co3O8,mp-1174143,P-1,3.9919207818891844,0.09608069499999772,0.34419999999999984,2.13948616,False,True
1288,Li3MnV(PO4)3,mp-777468,P-1,2.910865809877072,0.059384788937496324,0.4666000000000001,2.09055931,False,True
1289,Li5Br3O2,mp-726248,I-4m2,3.0178748343831434,0.15583088700000047,0.0,-0.45086575,False,True
1290,Li9Mn2Co5O16,mp-1100583,Pm,4.150617229837577,0.10749640500000002,0.0,2.68138599,False,True
1291,KLi3Si12(SnO15)2,mp-6844,P6/mcc,2.854099779570041,0.0,4.4356,1.05406974,False,True
1292,NaLi2FePCO7,mp-1101716,P1,2.823778403519215,0.038462468461540666,1.3709,2.10984441,True,True
1293,Li7Mn2(CoO4)3,mp-1175105,Pm,4.066989090558571,0.11725162375000053,0.0,2.76873725,False,True
1294,Li3MnV(PO4)3,mp-779876,C2,2.896891008122468,0.0704886050624971,2.4106999999999994,2.12684865,True,True
1295,Li9Mn2Co5O16,mp-1100587,Pm,4.117549461690253,0.12351970156250047,0.0,2.8814462,False,True
1296,Na3Li3Mn2P2(CO7)2,mp-770835,P1,2.834467266346609,0.03838798346153549,3.3298999999999994,2.31946699,False,True
1297,Li12FeNi3P4(CO7)4,mp-766539,Pm,2.901223511340845,0.04329886605769406,3.0772000000000004,2.43302915,False,True
1298,Li2NiP2O7,mp-777806,P2_1,2.90209924003356,0.08440288201388668,4.1252,1.39504819,False,True
1299,Li2V(CO3)2,mp-1567493,P2_1/c,2.355981916416916,0.0498164691761378,2.9913000000000003,1.81501073,False,True
1300,Li8(FeO2)5,mp-1643420,P-1,3.1365575412300144,0.09685867228260747,0.516,1.50593684,False,True
1301,Li7Mn2(CoO4)3,mp-1174501,C2/m,4.064432154375931,0.06731001291666683,1.1445999999999996,2.24605433,False,True
1302,Li3Co2(SiO4)2,mp-752894,C2,2.9947357599615327,0.06000420999999978,0.5112000000000001,2.01540282,False,True
1303,Li5Fe3O8,mp-1177185,P2_1,3.752110951484097,0.05008439546875021,0.0,2.00212035,False,True
1304,Li7Mn4CoO12,mp-1175264,P1,3.930391630836199,0.05736296802083274,0.6682999999999999,2.6716302,False,True
1305,Li4V2Si(PO6)2,mp-770404,C2,2.9006668056111184,0.08414067162699013,1.8049,2.74259978,False,True
1306,Na2Li4Ti3Al(PO4)6,mp-769069,P1,2.8158797696272444,0.08876918515000032,0.0,5.0023085,False,True
1307,Li5V3P8O29,mp-1177088,P1,2.532047926422546,0.03416938042592488,1.057,0.35988702,False,True
1308,Li7Ni5O12,mp-756388,C2,4.369917959056464,0.03619230999999701,0.0,2.88281111,False,True
1309,Li3Mn2(P2O7)2,mp-849655,P1,2.9582486680178426,0.029462919782608843,0.1725000000000001,1.70140115,False,True
1310,Li2Mn(PO3)4,mp-758815,P2_1/c,2.4041645532829263,0.0673699758772468,3.8417,1.12127854,True,True
1311,Li6NbCr3(PO4)6,mp-758746,P1,2.980477309352968,0.07821122600000052,0.43869999999999987,3.97384878,False,True
1312,Li5Nb3OF18,mp-769316,I4cm,3.231829519371772,0.08530720152777693,4.2399000000000004,-2.05128824,False,True
1313,Li4MnCo2O7,mp-1174731,P1,4.073673357510955,0.12442899857142731,0.20940000000000003,2.59701251,False,True
1314,Li24MnCr11O36,mp-1178077,C2,3.5993106509006343,0.023775945138888588,1.004,2.15738075,True,True
1315,Li9Mn2Co5O16,mp-1175386,P-1,4.168242565010624,0.0917717421875004,0.0,2.49409858,False,True
1316,Li3MnCoO5,mp-1173998,P-1,3.999887251041051,0.05373122449998924,1.6462,1.98012375,False,True
1317,Li4CaNiO4,mp-775950,Pbca,3.025205680436749,0.08416375050000102,2.3519000000000005,1.83391752,False,True
1318,Li4H3BrO3,mp-753690,P2_1/m,1.8619136688419682,0.0,4.4379,-2.07285937,True,True
1319,Li9Mn2Co5O16,mp-1175737,P1,4.228704630839359,0.07107124750000082,0.8005999999999998,2.49643801,False,True
1320,Li3CoPCO7,mp-754820,P2_1,2.906223616572278,0.06629433057692324,2.6451000000000002,1.48094163,False,True
1321,Li4CrO4,mp-772434,Cmcm,2.782790626745667,0.013167364722219688,1.7266000000000001,1.42060022,False,True
1322,Li7(CoO3)2,mp-867726,C2/c,2.947002646550459,0.11970140483333136,0.0,1.37077372,False,True
1323,Li9Mn2Co5O16,mp-1176081,P1,4.186032614428436,0.11804171593750024,0.0,2.52715321,False,True
1324,Li9Fe5O12,mp-764889,C2/m,3.643787431590125,0.06786781115384333,0.0,2.93694749,False,True
1325,Li15(FeO4)4,mp-766829,Pc,2.4293761771987405,0.11678318757142936,0.0,-0.23472995,False,True
1326,Li4Co(BO3)2,mp-1177472,Pnnm,2.814604941095845,0.09938919153846637,3.0153999999999996,0.72970253,False,True
1327,Li5FeO4,mp-779333,Pnnm,2.5801578026146035,0.06934438775000018,2.4042000000000003,0.62461056,True,True
1328,Li5Mn(CoO4)2,mp-1174001,P2/m,3.9422582879317973,0.07547311031249748,0.0,2.17918809,False,True
1329,Li5MnP3O11,mp-757746,P-1,2.70623665825986,0.05398876437499567,4.1628,1.76854007,True,True
1330,Li9Mn2Co5O16,mp-1100623,Cm,4.13688532646032,0.10528829375000015,0.32099999999999973,2.78358432,False,True
1331,Li6Ni3Sn(PO4)6,mp-1176956,P1,3.1799370485187044,0.08754997870833403,0.0,1.35346494,False,True
1332,Li4MnCo2O7,mp-1174780,C2,4.223763186517781,0.10093866678571306,0.0,2.48863753,False,True
1333,Li3MnV(PO4)3,mp-768551,P-1,2.8145048100844474,0.04509968018749788,0.7026999999999999,1.5807284,False,True
1334,Li2MnSO4F3,mp-770642,Pbcn,2.8285811649605246,0.08378383639204401,1.4832,0.13081127,True,True
1335,Li4TiCrO6,mp-768387,P1,3.452058279158149,0.013229578333331382,0.9001000000000001,2.18304795,False,True
1336,Li2Mn(SiO3)2,mp-753527,C2/c,2.672278058720119,0.0423190208333315,3.3968,1.60612389,False,True
1337,Li7Mn4CoO12,mp-1175222,P1,3.9481914395629087,0.039523465520831635,0.8675000000000002,3.63916744,False,True
1338,Li9Mn2Co5O16,mp-1100702,P2/m,4.2463060152188135,0.05194703812500023,1.3786999999999998,3.48727364,False,True
1339,Li3FePCO7,mp-766696,P2_1/c,2.8656552412925356,0.06252886846153949,4.2013,1.54042187,True,True
1340,Li7Mn2(CoO4)3,mp-1175084,Cm,3.931033666826035,0.19702033208333347,0.0,2.17014063,False,True
1341,Li4MnCo2O7,mp-1174607,P1,4.162036160623466,0.09100885214285626,0.7633999999999999,2.55190955,False,True
1342,Li9Mn2Co5O16,mp-1176306,C2/m,4.14423165718154,0.16460975312500015,0.0,2.76971522,False,True
1343,Li6Co2C4SO16,mp-780426,Fd-3,2.825671572164621,0.04252997508620471,0.0,2.40271681,False,True
1344,Li4UO5,mp-7714,I4/m,5.832405410848618,0.0,2.0777,2.64768663,False,True
1345,Li2CuP2O7,mp-1370462,P-1,3.1509042432243386,1.7468778908333276,0.0,3.09211241,False,True
1346,Li3Cu2(SO4)3,mp-768553,P2_1/c,3.0119681305461374,0.04401886956249612,0.0,2.29899737,False,True
1347,Li2VO2F,mp-763209,P1,3.318956318398711,0.10219957041666294,1.0057,2.91829125,False,True
1348,K2Li3GaO4,mp-17774,P2_1/c,2.997621728779739,0.0,3.3151,0.38391842,True,True
1349,Li6V3P8O29,mp-774273,P1,2.590792094781101,0.02292731212861643,1.4243000000000001,0.59987448,False,True
1350,Li9Mn2Co5O16,mp-1232437,P2,4.239007718160613,0.07345106937500034,0.4969000000000001,3.04151469,False,True
1351,K4Li5Cr2O8,mp-1178153,P1,2.6603473834060836,0.08334430500000334,1.079,1.94869211,False,True
1352,Li7Mn4(PO4)6,mp-760033,P1,2.907939194324543,0.02811662091462175,0.0,1.96059083,False,True
1353,Li17Fe6(Si2O7)6,mp-760086,P1,2.8679128931977287,0.06535279413419826,0.0,1.3456778,False,True
1354,Li2SbP(OF3)2,mp-776357,P1,2.721113369835476,0.08631388998842393,3.7559,-0.29665522,False,True
1355,Li5Fe2P2(CO7)2,mp-1177155,Pc,2.7472898779509887,0.03859478275000594,1.2947,1.23249665,False,True