,formula,mp-id,crystal system,density,energy above hull,band gap,efermi,is gap direct,theoretical
389,Li5Fe4(P2O7)4,mp-1177159,P1,3.0705110714342165,0.06463988325926362,1.1907,3.30939129,False,True
390,Li2VO2,mp-774411,P-3m1,3.4262223193539616,0.10280860199999875,1.6694000000000004,4.02839368,False,True
391,Li3VFeP2(O4F)2,mp-1177545,P1,3.163679423807041,0.0,2.4464000000000006,1.79271918,False,True
392,KLi3PbO4,mp-559106,P-1,4.712084679195278,0.0,1.6930999999999998,1.17055634,False,True
393,Li3Ni2(PO4)3,mp-26679,C2/m,3.413666552565205,0.07463401602082964,0.0,2.36478481,False,True
394,Li2Mn(SiO3)2,mp-1263073,C2,2.7876187670010197,0.05283152128787716,3.4173000000000004,5.03108818,False,True
395,Li10Cr3P6(O4F)6,mp-760793,P3,2.5920016922918596,0.08446268920310995,0.0,0.01521174,False,True
396,Li24Mn5Cr7O36,mp-768784,P1,3.640986769164292,0.03577245013888586,1.0341,2.16105533,False,True
397,Li7Mn2(CoO4)3,mp-1175134,Cm,4.010160802224408,0.13945517208333413,0.0,2.67450098,False,True
398,Li6V3P8O29,mp-1176927,P1,2.5661910475279925,0.021646107889486288,0.9571000000000001,0.73653802,False,True
399,Li2Mn(PO4)2,mp-753609,P-1,2.954947196982713,0.04813381073718137,0.49449999999999994,1.3321028,False,True
400,Li4MnCo2O7,mp-1374732,P-1,4.107932478862597,1.8638357221428556,0.0,3.03586259,False,True
401,Li3V2(SiO5)2,mp-25243,Cmce,3.0248236827393664,0.06983522676468912,1.0726,2.68416082,False,True
402,Li7Mn5O12,mp-1642906,P-1,3.8620113121918735,0.029443093958333222,0.8207,2.75154833,False,True
403,Li5Ni3O5F3,mp-801465,P1,4.017549533858187,0.6977021069791665,0.0,2.70226907,False,True
404,Li2Mn(SiO3)2,mp-757250,Pmn2_1,2.932576245439255,0.07204075477272642,2.6073999999999997,3.27027156,True,True
405,Li4V3O8,mp-1314586,Pc,3.3586121583849295,0.06870764358334025,1.7335,2.00001912,False,True
406,Li5V3P8O29,mp-765137,P1,2.548119646625459,0.03377249975925878,0.7725,0.64591149,False,True
407,Li7Mn4CoO12,mp-1175275,P2/m,4.030388968944942,0.029529502187498835,0.7710000000000004,3.08132897,False,True
408,Li7Mn2(CoO4)3,mp-1175075,P1,4.040197682395371,0.13313740208333424,0.0,2.57693453,False,True
409,Li3Co2(SiO4)2,mp-774355,Pc,3.092473040874717,0.0595900536666667,0.2174999999999998,1.85447982,False,True
410,Li4TiCrO6,mp-768403,C2,3.45973601871327,0.019027968541664997,1.1997999999999998,3.22054478,False,True
411,Li2FeSiO4,mp-752853,I-42m,3.1245756397251836,0.014926680625000799,2.6273,2.06456053,False,True
412,Li6V(OF)3,mp-861486,P1,2.5060195800095,0.10279327500000157,2.1076,1.78663582,False,True
413,Li5V3P8O29,mp-773108,P1,2.5669267852759345,0.03489414575925753,0.9957,0.56626042,False,True
414,Li3NiPCO7,mp-771345,P2_1,2.869040743408961,0.04533712269231138,3.2641999999999998,1.47130994,False,True
415,Li9Mn2Co5O16,mp-1176304,C2/m,4.165470935018833,0.0868245181250007,0.15850000000000009,2.79981167,False,True
416,Li2FeO2F,mp-775979,C2/c,3.541586007802383,0.09457073041666586,2.1313000000000004,3.7854394,False,True
417,Li2Si2NiO6,mp-753874,P2_1,3.04761198634276,0.09157312749998692,3.4086,1.75177143,False,True
418,Li9Mn2Co5O16,mp-1100680,Cm,4.209136285921045,0.0739146484375004,0.8679000000000001,2.42670507,False,True
419,Li8Fe7(PO4)8,mp-774835,Cm,3.333016813178594,0.02814579609090817,0.024399999999999977,3.35040487,False,True
420,Li2Cu(Si2O5)2,mp-757101,P-1,2.893112792512669,0.0811125958823542,0.7930999999999999,3.06726376,False,True
421,Li3FeBO4,mp-778748,I4_1/a,3.0192532055009718,0.07577918388888705,3.0694000000000004,2.08345307,True,True
422,Li3MnV(PO4)3,mp-779368,P1,2.9018427996703084,0.0668357673124973,0.2709999999999999,2.23103819,False,True
423,Li3Ga(BO3)2,mp-556014,P-1,2.7530630569637413,0.010040545208327423,4.1682,0.13798197,False,True
424,Li4MnCo2O7,mp-1174667,Cm,4.041660216908282,0.18895896035714177,0.0,2.30404989,False,True
425,Li7OsO6,mp-34375,P1,4.339488882511389,0.012494622925172116,0.6890000000000001,2.33064344,False,True
426,Li4Mn3(OF3)3,mp-753462,P1,3.4045364907075646,0.09100497054824963,0.5235000000000001,-0.04991582,False,True
427,Li5V3P8O29,mp-773083,P1,2.5385014891027913,0.0369022413148139,0.7483,0.50262315,False,True
428,Li2Bi(BO3)2,mp-768437,P2_1/c,4.347654560292765,0.05550987181818545,0.0,1.18402013,False,True
429,Li7Mn4(P2O7)4,mp-1177043,Pc,2.9296897849210164,0.019811452925504014,0.015099999999999891,2.06541633,False,True
430,Li2V(PO3)5,mp-540330,P2_1/m,2.5298825132799063,0.032200445398549604,1.9238000000000002,1.16399958,False,True
431,Li3Cr2(PO4)3,mp-780606,P1,2.952162093335476,0.0,2.9720999999999997,1.25937579,False,True
432,Li3MnV(PO4)3,mp-768565,P1,2.860989711170366,0.04388881318749682,0.34609999999999985,1.72248639,False,True
433,Li3Sn2(PO4)3,mp-27093,P2_1/c,3.429088066198849,0.0463658935833271,2.3675999999999995,2.49331122,False,True
434,Li3V2(PO4)3,mp-757678,C2,2.609625969392843,0.09268121187502665,2.0829,3.31886362,False,True
435,Li7Mn2(CoO4)3,mp-1174997,P1,4.096357214874094,0.07827153208333382,0.45330000000000004,2.95635067,False,True
436,Li9Mn2Co5O16,mp-1100677,Cm,4.160664663923352,0.08663505437500074,0.8313000000000001,2.37129279,False,True
437,Li9Mn2Co5O16,mp-1175845,P1,4.249721202458829,0.07646248968750058,0.7174,2.62396572,False,True
438,Li9Mn2Co5O16,mp-1100617,Cm,4.155565626335547,0.11166148843750001,0.3900999999999999,2.53245194,False,True
439,Li4V3P8O29,mp-760111,P1,2.5337040967347817,0.04675035299242314,0.9650999999999998,0.35313116,False,True
440,Li2PWO6,mp-757392,C2/c,4.555457319383158,0.055696321874997956,2.6243,2.02529019,False,True
441,Li3Co2(CO3)4,mp-753812,P1,2.48889426660123,0.03937732640873559,0.6341,-0.05212761,False,True
442,Li7NiOF7,mp-765342,Cm,3.0051694014596118,0.062398182812499314,3.1729000000000003,1.5423322,False,True
443,Li2Fe(PO4)2,mp-26576,Cm,3.0764755486821067,0.0814693991826907,0.0,1.41712245,False,True
444,Li2NiP3O10,mp-759146,P2_1/m,2.9450221424675407,0.08275244417968075,0.0,1.26498017,False,True
445,Li9V3P8O29,mp-761055,P1,2.628152116505876,0.027657126615617145,0.6098000000000003,2.1811616,False,True
446,Li3(FeO3)2,mp-1177753,C2/c,3.5969885313347634,0.06923521051948,0.2680999999999999,0.98042656,False,True
447,Li9Mn2(CO3)8,mp-780774,P1,2.38989619830407,0.06406069267441517,0.0,0.33654,False,True
448,Li2CuSiO4,mp-758435,Pna2_1,3.312976316786411,0.06939389218750058,0.0,2.34313598,False,True
449,Li7Mn5O12,mp-1175321,P-1,3.8823309014913283,0.04163316500000036,0.0,3.08826903,False,True
450,Li2NiPO4F,mp-554446,Pnma,3.3769575784496006,0.029674211250019233,3.6477,5.77692996,True,True
451,Li4V3P8O29,mp-1177335,P1,2.494069740269223,0.04882409878787719,0.518,0.30503715,False,True
452,Li2Mn(PO3)4,mp-780694,P2_1/c,2.48299801488158,0.01887592785093073,4.3697,0.96151768,False,True
453,Li9Mn2Co5O16,mp-1175666,P-1,4.237499204139418,0.09974184812500031,0.0,2.8647676,False,True
454,Li3MnCoO5,mp-1174075,C2/m,4.014392584703345,0.06623444549998947,0.9613,3.4803603,False,True
455,Li6V3P8O29,mp-757509,Cc,2.5912727786431353,0.034713041911225595,0.007100000000000106,1.18737919,False,True
456,Li4Co3OF8,mp-759351,Cm,3.9155891589014113,0.0721245942187494,1.6506999999999998,3.6020426,False,True
457,Li2VO2F,mp-1290831,P-1,3.4340358832437863,0.054176500416662776,1.5731000000000002,4.50052872,False,True
458,Li9Mn2Co5O16,mp-1175781,P1,4.2082059792217015,0.08293261343750036,0.3458000000000001,3.27679646,False,True
459,Li2MnP2O7,mp-554804,P2_1/c,2.92863420813066,0.21681464083333246,4.1219,1.89567601,False,True
460,Li4Co3O7,mp-1174269,P-1,4.243445845878136,0.08600886178571088,0.4573999999999998,2.28255668,False,True
461,Li2MnPO5,mp-863039,P2_1/c,3.141432796772149,0.07765860277778991,0.4836999999999998,2.8071159,False,True
462,Li9Mn2Co5O16,mp-1100757,Cm,4.1471787777714955,0.11246793156250057,0.0,2.87074869,False,True
463,Li9Mn2Co5O16,mp-1175660,P-1,4.228105786588993,0.09892140812500028,0.6025,2.58029011,False,True
464,Li3Ce2(BO3)3,mp-1211185,P2_1/c,4.331853192778752,0.018355797323537537,0.2344999999999997,6.37632678,False,True
465,Li5FeO4,mp-770834,P2_1/c,2.521236698652839,0.04590376500000115,2.3911000000000002,0.27086556,False,True
466,Li5Cu(PO4)2,mp-779472,P1,2.9041331158933317,0.032404090781250616,1.7892000000000006,3.82441428,False,True
467,Li5NiO3F2,mp-759151,C2/m,2.9173955339142617,0.08694211030302856,0.0,0.84223973,False,True
468,Li3NbP3O11,mp-850631,P-1,3.2592505767875735,1.4049468883382783,0.1109,4.21612104,False,True
469,Li7Mn2(CoO4)3,mp-1175008,Cm,4.01999409061657,0.11725560333333362,0.0,2.9354197,False,True
470,Li3GeO4,mp-1211318,Pnma,2.8693870657630023,0.08229057316666477,0.0,-0.868925,False,True
471,NaLi5Mn2P2(CO7)2,mp-773725,P1,2.7547366953867116,0.05339619551281505,3.2926,2.10340044,False,True
472,Li3CoPCO7,mp-766705,P2_1/c,2.936417290986482,0.08563420403846145,2.8741000000000003,1.42102645,False,True
473,Li6Mn3CoO10,mp-1174818,Cm,3.9355989038487,0.06460748237499736,1.0117999999999996,3.63277229,False,True
474,Li4MgNi3O8,mp-756312,R-3m,4.281408156518371,0.019112574027779772,0.0,3.27939063,False,True
475,Li6V5O12,mp-760815,P1,3.6353428152326717,0.04878321994564683,0.44510000000000005,3.00802739,False,True
476,Li2CuP3H8O13,mp-773601,P-1,2.2370760007860127,0.08167624995370382,1.6309000000000005,2.47470326,False,True
477,Li2Nb(PO4)2,mp-757793,Pc,3.236566986972438,0.09368969778846559,0.3167,3.7302359,False,True
478,K2Li3FeO4,mp-16955,P2_1/c,2.782485866772996,0.0,3.0917,0.78395393,False,True
479,Li3V2P4(HO8)2,mp-775982,P1,2.91782080965919,0.0,0.43389999999999995,2.13707282,False,True
480,Li4VO3F2,mp-1348419,P1,3.009285168495066,1.7458307202499999,0.0,3.09766422,False,True
481,Li7(CuO2)6,mp-758382,P-1,3.8112095762958567,0.021159497999994947,0.0,2.07868254,False,True
482,Li6MnV3(PO4)6,mp-1177039,P1,2.819771436746038,0.05453992901560767,0.33499999999999996,2.01864144,False,True
483,Li2Cr(PO4)2,mp-26618,Cc,2.9684516367868055,0.06248481180403065,0.0,1.49525217,False,True
484,Li6Fe3Cu(PO4)6,mp-769476,P1,3.031270482072468,0.05517711923437574,1.9126,1.66084306,False,True
485,Li9Co7O16,mp-1175409,P-1,4.821200696828389,0.008770690625000022,0.125,2.71458337,False,True
486,Li2MoP4O13,mp-704204,P-1,2.6124766921918723,0.049164804666649964,0.0,2.09339181,False,True
487,Li2SeO4,mp-650121,P-1,2.512127024523366,0.5098736521428568,0.5103,-0.65306533,False,True
488,Li11Cr3Fe3O16,mp-765203,P1,3.559177578182536,0.09315418045454216,0.0,2.10585118,False,True
489,Li9Mn2Co5O16,mp-1175431,P-1,4.283695412270306,0.061295113437500603,0.8832999999999998,3.48144904,False,True
490,Li4Mn3O7,mp-1174359,C2/m,3.8932491941978014,0.04302822964285724,1.1623999999999999,3.82893911,False,True
491,Li2MnOF3,mp-861177,Cm,3.2467045173947096,0.07163693517856995,1.4107,0.20416405,False,True
492,Li5Mn3O8,mp-1316353,P1,3.823553274985466,0.043199800937499866,0.44650000000000034,2.79765124,False,True
493,Li9Mn2Co5O16,mp-1176151,P1,4.181480777145525,0.08574784562500071,0.26849999999999996,2.90185506,False,True
494,Li4V3P8O29,mp-1177211,P1,2.5234392904489957,0.053551855606058574,0.5284,0.39503664,False,True
495,Li8Fe(O2F)2,mp-752873,P-1,2.3083346875504316,0.07002979050000047,2.9017999999999997,0.93972463,True,True
496,Li9Mn2Co5O16,mp-1100743,C2/m,4.157178262945423,0.12557404875000078,0.0,2.45833817,False,True
497,Li9Mn2Co5O16,mp-1176073,P1,4.125174815768235,0.10445933968750065,0.0,2.51445338,False,True
498,Li5V3P8O29,mp-765130,P1,2.551628386681589,0.0361421855370363,0.9598,0.51097961,False,True
499,Li7Mn3Co3O16,mp-759545,Cm,3.8862264185267925,0.07999628665287961,0.08190000000000008,1.49029186,False,True
500,Li2CrSiO4,mp-762870,Pc,2.833360138914176,0.11070911604166245,1.5289000000000001,2.80228806,False,True
501,Li24TiCr11O36,mp-777351,C2,3.5561316586454823,0.022213945173606753,0.0,3.22540279,False,True
502,Li2MnP2O7,mp-26257,C2/c,2.508168009955759,0.023967148749999723,3.1115999999999997,1.28878502,False,True
503,Li2FeO2,mp-754868,P-3m1,3.6516440712392777,0.05466005599999946,2.2850999999999995,2.24031523,False,True
504,Li3MnCoO5,mp-1174221,C2/m,3.876882495954235,0.21561055299998877,0.0,2.21414508,False,True
505,Li7FeO5F,mp-759661,P1,2.316510426514805,0.05182936732142718,0.0,0.11953626,False,True
506,Li9Mn2Co5O16,mp-1175811,P-1,4.116430891142477,0.12323320843750007,0.0,2.39035488,False,True
507,Li24Ti5Cr7O36,mp-768398,P1,3.4746064922633293,0.015511358645838413,0.9017999999999997,3.24305426,False,True
508,Li6Ni2C4SO16,mp-776423,Fd-3,2.8758641613838254,0.04172341818965464,3.2603,1.21813822,False,True
509,Li7Fe5O12,mp-756862,C2,4.205121726974113,0.01562889093749309,0.018299999999999983,2.21500849,False,True
510,Li9Mn2Co5O16,mp-1100564,Pm,4.112140006840228,0.25496638312500064,0.0,2.47669134,False,True
511,Li7Mn5O12,mp-1175313,P-1,3.872749163389011,0.023691507500000597,1.0098000000000003,3.68344516,False,True
512,Li2Cr(CO3)2,mp-1178034,Fdd2,2.3578171933484207,0.08144996732954901,2.8669000000000002,4.04046867,False,True
513,Li7Mn2(CoO4)3,mp-1174887,C2,4.087342307982008,0.05013374166666651,0.9155000000000002,2.3528519,False,True
514,Li2VSi4O11,mp-752694,C2/c,2.779169665230793,0.053040860000002965,1.9445,1.98931455,True,True
515,Li6Mn3Cr(PO4)6,mp-771092,P1,2.9463886381125617,0.05597043727083939,0.24350000000000005,1.7271041,True,True
516,Li2TeO3,mp-865750,C2/m,3.4322998638489155,0.00577922874999981,3.1190999999999995,0.88117173,False,True
517,Li9Mn2Co5O16,mp-1100699,P2/m,4.17111395769889,0.06412575843750012,1.0540000000000003,2.30843738,False,True
518,Li9Co7O16,mp-1175497,C2/m,4.183513164678674,0.11292290781250003,0.2105999999999999,2.33560314,False,True
519,Sr3Li6Nb2O11,mp-1208770,Pmma,4.170411061009504,0.0,3.3726,1.77678432,False,True
520,Na3Li3Fe2P2(CO7)2,mp-1176351,P1,2.8585567223004666,0.02461731250000021,3.8891,1.70100932,False,True
521,Li2Fe(SO4)2,mp-1193501,P2_1/c,2.7041048229266966,0.0015654144230774492,4.2848,0.74594003,False,True
522,Li2CuPO4,mp-779539,P1,3.362525829236095,0.06110412343750049,0.9082999999999997,4.13326569,False,True
523,Li7Mn4CoO12,mp-1175169,P-1,4.007208870828155,0.03700115177083152,0.7356000000000003,3.53604901,False,True
524,Li3Mn2(CO3)4,mp-758761,P2_1,2.1399844081862143,0.08615596750000609,0.5049,-0.31000773,True,True
525,Li7Fe3Co(PO4)6,mp-775102,R3,2.893263763137774,0.05095563786586155,2.1592000000000002,3.12775238,False,True
526,Li4Mn3OF8,mp-764336,P1,3.1396145852095,0.09233792083333281,1.749,3.01120091,False,True
527,Li32Mn13Cr3O48,mp-1177789,P1,3.6914181491742353,0.014579868072909008,1.3133000000000001,1.83469654,True,True
528,Li32Ti3Cr13O48,mp-777345,P1,3.5376620778536454,0.01871111382812707,1.0789,2.18617258,False,True
529,Li3FeBO5,mp-771078,Pna2_1,2.955554290476966,0.09795520183035755,0.46430000000000005,1.0470035,False,True
530,Li2Cu(PO3)4,mp-672959,P-1,2.9023635353616295,0.018163737850855455,0.8002999999999998,1.8749653,False,True
531,Li3Mn(BO3)2,mp-770910,P2_1/c,2.841604327853369,0.01245145124999869,0.9808999999999999,1.49434215,False,True
532,Li12VCo3P4(CO7)4,mp-766565,Pm,2.8206378576315694,0.055428111610571484,0.7799000000000005,3.56030595,False,True
533,Li3Mn2(PO4)3,mp-780607,C2,2.9439513093830856,0.056443309250050255,0.24219999999999997,1.6341728,False,True
534,Li4MnCo2O7,mp-1174718,P1,4.124578113343509,0.12320449285714208,0.3014000000000001,2.69372425,False,True
535,Li4MnO3,mp-1291001,P1,2.5554499427850472,0.07715714354166625,1.693,1.05101139,False,True
536,Li9Mn2Co5O16,mp-1175663,P1,4.229944463652285,0.06810426687500026,0.44440000000000035,2.48363915,False,True
537,Li2MnPCO7,mp-768927,P1,2.707041425811615,0.028752259791663626,0.0,1.39102829,False,True
538,Li5Fe4(P2O7)4,mp-1177390,P1,3.034557267462508,0.374287900703707,0.05610000000000004,1.47970798,True,True
539,Li6Mn2O5F2,mp-766095,Pc,3.0459546702010005,0.07947796100000648,0.9884999999999999,1.15179368,False,True
540,Li2Bi(PO4)2,mp-25802,P3,4.0832604237332735,0.06492173831730774,0.16720000000000002,1.424703,False,True
541,Li3Cr2(PO4)3,mp-26739,Ia-3d,3.3710055239722316,0.034808356625003256,3.1279,6.08423536,True,True
542,Li3MnCoO5,mp-1174247,C2/m,3.962767114644963,0.10029772349998911,0.0,2.93593834,False,True
543,Li10Zn3(GeO4)4,mp-760348,P1,3.5018060346090913,0.09896100090908977,2.7679,0.17867557,False,True
544,Li5Mn4(P2O7)4,mp-849659,P1,3.0417598580924237,0.05539609083334707,0.06269999999999998,1.95015873,False,True
545,Li6Ni3Sb(PO4)6,mp-1176986,P1,3.1921034224544957,0.07875050252257232,0.0,1.51090402,False,True
546,Li3MnPCO7,mp-756651,P2_1,2.7868740947400408,0.2597753415384618,3.7925999999999997,1.70923138,True,True
547,Li6MnV3(PO4)6,mp-1177013,P1,2.870229285612208,0.05629321176560964,0.40259999999999985,2.35984113,False,True
548,Li9Mn2Co5O16,mp-1100641,Cm,4.175156578194725,0.21509141093750017,0.0,2.64260594,False,True
549,Li3Ti2(PO4)3,mp-757914,Ia-3d,3.1467678183530055,0.09942654123332861,0.010200000000000209,5.83595615,True,True
550,Li9Mn2Co5O16,mp-1176046,P1,4.15360213200147,0.10968627093750083,0.09489999999999998,2.73387198,False,True
551,Li5VO3F2,mp-752747,C2/m,2.6383602922310643,0.07839212659090933,1.5920999999999998,2.09516502,False,True
552,Li5V2OF11,mp-760197,P1,2.8041350768189437,0.04804975815785539,1.479,-0.9067292,False,True
553,Li2IrO3,mp-1190434,Fddd,7.811125609235503,0.003062738916663754,0.0,4.02206468,False,True
554,Li6MnV3(PO4)6,mp-1177021,P1,2.849807389393039,0.060087939765609555,0.5409999999999997,2.269874,False,True
555,Li2V(SiO3)2,mp-766231,Pmn2_1,2.927995389288182,0.08838624837122122,1.8921999999999999,4.34824659,False,True
556,Li2AlVO4,mp-755694,C222_1,2.7749200531076648,0.15295522593750022,1.9247999999999998,2.51936201,False,True
557,Li9Mn2Co5O16,mp-1100585,Pm,4.099437598492268,0.12863363843750086,0.0,2.58174543,False,True
558,Na2Li2FeO4,mp-25323,P2_1/c,2.730950770674328,0.053548848597881005,0.274,0.62144486,False,True
559,Li7Mn4CoO12,mp-1666339,P1,3.9896579738617803,0.019488092604165175,1.0112999999999999,3.91090704,False,True
560,Li9Mn7O16,mp-1100516,P-1,3.9211910733411144,0.03321082015624999,0.0,3.01863875,False,True
561,Li9Mn2Co5O16,mp-1175687,P-1,4.2667692772710994,0.09138928000000046,0.0,2.71565468,False,True
562,Li2VP3O10,mp-758361,C2/c,2.6409678102416407,0.05566114010416712,3.4028,1.24405305,False,True
563,Li3CrO4,mp-772659,P4_122,3.285155219979539,0.08956924031250058,0.4556,1.75449567,False,True
564,Li2CuPO4,mp-758587,Pnma,3.3792916595387443,0.05882533687500047,0.9052000000000007,3.94269519,False,True
565,Li2AlCoO4,mp-849801,P2_1/c,3.375347915226293,0.12682896499999963,0.43110000000000026,2.3113379,False,True
566,Li3NiOF3,mp-752550,P4/mmm,3.596801994408232,0.047341250624999276,1.9121000000000001,3.00728772,False,True
567,Li7Mn5O12,mp-1643948,P-1,3.859679513109627,0.029139372916667128,1.0926999999999998,3.66784864,False,True
568,Li4Fe2(PO4)3,mp-772975,P-1,2.9231928229059037,0.027866551785708182,1.0911999999999997,2.01385034,False,True
569,Li3MnV(PO4)3,mp-1177572,P1,2.894583843022586,0.03263531556249699,0.2549000000000001,1.9690919,False,True
570,Li2CuSiO4,mp-758793,P2_1/c,3.2720561602050835,0.06394371250000042,0.14150000000000018,2.35670936,False,True
571,Li4CoRuO6,mp-1222544,C2,4.446352079518424,0.004944509999995184,0.6254999999999997,2.72424242,False,True
572,Li4Ni(BO3)2,mp-775949,Pnnm,2.8266933892453157,0.04081047237178659,3.0071,1.04380103,True,True
573,Li3CoSiBO7,mp-1650011,Pm,2.916998050317762,0.11422996064903845,0.0,1.23906312,False,True
574,Li2AlFeO4,mp-770733,Pna2_1,2.958994470255013,0.026057285312499623,3.0507,1.1623709,False,True
575,Li9Mn2Co5O16,mp-1176004,P1,4.223041254652752,0.08889161250000033,0.5818999999999996,3.31598337,False,True
576,Li2Si4NiO10,mp-766687,P2_12_12_1,2.4212896321647186,0.08695947323529207,3.7573,0.54135386,True,True
577,Li9Mn2Co5O16,mp-1176296,C2/m,4.169683745984126,0.07263616250000027,1.2744,2.12776247,False,True
578,Li7V(O2F)2,mp-861543,P1,2.473725835200467,1.5965441417857154,0.0788000000000002,2.2601574,False,True
579,Li7Mn4CoO12,mp-1175225,P-1,3.9236236712676353,0.27443095593749867,1.4619,2.32238964,True,True
580,Li5V4(PO4)6,mp-849426,Pc,2.9066637845354437,0.004546468157037076,0.4039999999999999,2.41422648,False,True
581,Li6V3P8O29,mp-1176896,P3c1,2.5480963584326477,0.023476777780789604,1.6115,0.26972252,True,True