,formula,mp-id,crystal system,density,energy above hull,band gap,efermi,is gap direct,theoretical
4441,Li7V3(SiO6)2,mp-1176994,C2/m,3.5969659332693773,0.07569552374997279,1.6543999999999999,4.53189738,False,True
4442,Li9Mn2Co5O16,mp-1175397,P-1,4.297382625798732,0.1348365600000001,1.4606,2.61412301,False,True
4443,Li9Mn2Co5O16,mp-1100689,P2/m,4.109444310318659,0.1331826678125001,0.0,2.53442108,False,True
4444,Li6V3P8O29,mp-757517,P1,2.5816358751963646,0.023247031911224347,1.3142,0.71114583,False,True
4445,Li2CoO3,mp-1173887,P-1,3.8074929030322977,0.07950266750000079,0.23450000000000015,1.97785785,False,True
4446,Li2V(OF)2,mp-1311685,C2,3.037226264662222,0.06634558428571857,1.5271000000000001,0.80257054,True,True
4447,Li5Mn2P2(CO7)2,mp-768859,P2_1/m,2.7338084052101457,0.04733718369999895,2.2417000000000002,2.03971236,False,True
4448,Li3Co2O5,mp-1174108,P-1,4.077281024387586,0.10066705649999985,0.08150000000000013,2.73689236,False,True
4449,Li2CrP2O7,mp-757356,P1,2.801847146666231,0.05945026291669375,0.03300000000000036,4.61800903,False,True
4450,Li2SbPCO7,mp-768207,P2_1,3.055594414795013,0.06317540069444494,3.2196000000000002,1.69369818,False,True
4451,Li9Mn7O16,mp-1100545,P-1,3.9302097407466317,0.032736448906249827,0.0,3.04883872,False,True
4452,Li9Mn2Co5O16,mp-1176181,P1,4.168565437017835,0.11238030500000029,0.0,2.81293785,False,True
4453,Li3FeOF3,mp-775153,P-1,3.282277189645986,0.3622101768750001,3.0904000000000003,1.87390418,False,True
4454,Li9Mn2Co5O16,mp-1100670,Cm,4.177328783560756,0.09198383125000031,0.0,2.43367599,False,True
4455,Li9Mn2Co5O16,mp-1176192,P1,4.146039605034774,0.11137590156250088,0.0,2.634946,False,True
4456,Li7Mn2(CoO4)3,mp-1175054,P1,4.059666846673962,0.11427877875000103,0.0,2.38041377,False,True
4457,Li4MnO2F3,mp-802090,P-1,3.097660668280011,3.8755290995000022,0.0,4.30564003,False,True
4458,Li4MnCo2O7,mp-1174745,P1,4.115337496382213,0.11063969285714137,0.0,2.64896115,False,True
4459,Li7Mn2(CoO4)3,mp-1175043,P1,4.06331142282737,0.11001621916666693,0.0,2.72257385,False,True
4460,Li5Mn2CoO8,mp-1174167,C2/m,3.564001619122106,0.3490993637500006,0.0,2.04230512,False,True
4461,NaLi3Ti2Al2(PO4)6,mp-776523,P1,2.8280478407994925,0.03700523184209992,2.5061,1.84175244,False,True
4462,Li9Mn2Co5O16,mp-1100624,Cm,4.13438841167813,0.12731934218750052,0.0,2.69382561,False,True
4463,Li4ZrO4,mp-770720,P2_1/c,2.9979018150215597,0.0821512027777791,4.0628,-0.03523337,False,True
4464,Li2CuP6H20C2(N3O11)2,mp-721086,P-1,2.017923134669542,0.04704602741054931,0.4524,0.7178706,False,True
4465,Li2V(CO3)2,mp-766004,P2_1,2.319897817598858,0.08935734167613862,3.0338,1.88819832,False,True
4466,Li4MnCo2O7,mp-1174794,P1,4.041198984864396,0.13426929035714164,0.026499999999999968,2.60745973,False,True
4467,Li32Mn13Cr3O48,mp-778189,P1,3.694073772925724,0.014604966406243314,1.2035,1.85738534,False,True
4468,Li4Ni2(PO4)3,mp-849437,Pbcn,2.9981573630992266,0.05989867407737837,0.005199999999999982,0.99994206,False,True
4469,Li2Sn(H5O4)2,mp-1195757,P2_1/c,2.7843201053492406,0.0,4.465,3.89273369,False,True
4470,Li3V2(CO3)4,mp-1177522,P2_1,2.5409339174996215,0.08772935099702384,0.4142000000000001,2.20282247,False,True
4471,Li2Si2NiO6,mp-752828,Fdd2,2.9124571903302803,0.037843572954531446,3.2396000000000003,1.44463266,False,True
4472,Li2SnP2O7,mp-758115,P2_1/c,3.2716149872972053,0.02037989020831521,3.7994,2.33428808,False,True
4473,Li7V3P8O29,mp-757556,P1,2.582666139439945,0.014563055243792533,0.9115,1.16736557,False,True
4474,Li2SnBPO7,mp-771707,P2_1/m,3.0993643092148373,0.09776590108630767,2.7306999999999997,1.32817039,False,True
4475,Li3AsO4,mp-1222598,Pnma,3.1335562496946476,0.003720847812505035,4.1528,-0.26414806,True,True
4476,Li3Co(BO3)2,mp-756335,P-1,2.6858398317562227,0.05447789576388207,1.1890999999999998,0.30767436,False,True
4477,Li3P2WO8,mp-757992,P2_1/c,4.3930185183884385,0.05835272616070952,3.9254,2.85469578,False,True
4478,Li7Mn2(CoO4)3,mp-1174884,P1,4.119587030466322,0.07889233666666673,0.45999999999999996,2.87263077,False,True
4479,Li10Cr(SiO5)2,mp-1263657,P1,2.4165276676312013,0.09361443376811351,0.6955,2.22251651,False,True
4480,Li9Mn2Co5O16,mp-1176229,P1,4.163907328718944,0.09536288687500072,0.2338,2.76664087,False,True
4481,Na3Li3Fe2P2(CO7)2,mp-771022,P1,2.855709494709602,0.030165915192308823,3.3693,1.94583579,False,True
4482,Li3Sn2P5O16,mp-684470,P2/c,3.0157235700988676,0.036610731249994366,3.8177,1.80490661,False,True
4483,Li9Mn2Co5O16,mp-1176216,P1,4.073367495044611,0.13244452875000068,0.0,2.36215135,False,True
4484,Li2Mo(PO4)2,mp-26863,Cc,3.258875991390069,0.043513365000019455,1.6269,2.23796527,False,True
4485,Li9Mn2Co5O16,mp-1100746,C2/m,4.133287429924313,0.14404389812500007,0.0,2.98981162,False,True
4486,Li2SnP2O7,mp-757946,P2_1/c,3.202422398747622,0.06334116562498249,2.958,2.27077886,False,True
4487,Li5Mn2(PO4)3,mp-778881,P2_1,2.856089559881548,0.0529388654545393,4.0627,1.77212937,True,True
4488,Li5InO4,mp-778877,Pbca,3.5159643776153753,0.013673919499997744,2.4721,1.04230869,True,True
4489,Li4Co3O7,mp-1174233,P-1,4.2548211262975455,0.1320937857142832,0.009500000000000064,2.67027707,False,True
4490,Li3V2O6,mp-752603,C2/m,3.4433054258742457,0.1165066113636426,0.0,2.81134662,False,True
4491,Li3MnAl2O6,mp-770693,P2_1/c,3.068232862676898,0.07485801187500041,1.2006000000000001,3.65140438,False,True
4492,Li32Mn13Cr3O48,mp-1177747,P1,3.7052899034317837,0.01469437255207584,1.3745,1.8380611,False,True
4493,Li2FeBO4,mp-754063,C2/m,3.0306390379526533,0.09865955624999945,1.1006,1.44023187,False,True
4494,Li5Al(Co2O5)2,mp-1222628,R-3m,4.302914235768977,0.11351800462500261,0.0,2.64440902,False,True
4495,Li4Mn(PO3)6,mp-860799,C2/c,2.69147351630889,0.06269649293100699,4.5844000000000005,6.02323265,False,True
4496,Li9Mn2Co5O16,mp-1175603,P-1,4.282749102781444,0.07798111093750038,0.7107000000000001,2.73721005,False,True
4497,Li5FeO4F,mp-1177116,P2_1,2.5600221379271635,0.0488500454545413,0.7312,0.17839566,False,True
4498,Li2FeBPO7,mp-777716,P2_1/m,2.646975905448809,0.2619073216592236,0.0,0.43518076,False,True
4499,Li3Fe(PO4)2,mp-757649,P2_1/c,2.9159224585556416,0.09505570678571207,1.7471,1.93286009,False,True
4500,Li4MnCo2O7,mp-1174393,P-1,4.20698301938581,0.06139428357142673,0.9846000000000004,3.47836024,False,True
4501,Li2NiBO4,mp-754059,C222_1,3.226754783432694,0.08123471002402916,0.9341999999999999,1.51674212,False,True
4502,Li9Mn2Co5O16,mp-1176045,P1,4.178261217063275,0.09436499031250012,0.6622999999999997,3.32361565,False,True
4503,Li7Mn2(CoO4)3,mp-1174964,P1,4.074028726372935,0.09351373208333413,0.8363999999999998,3.34947432,False,True
4504,Li16Nb2N8O,mp-6031,R-3,2.6507385555998564,0.0,3.3829000000000002,1.06525818,False,True
4505,Li9Mn2Co5O16,mp-1100731,P2/m,4.122380191495645,0.12270891531250072,0.0,2.6083918,False,True
4506,Li7V3P8O29,mp-1176845,P1,2.5812369398170283,0.027214896945920053,0.008499999999999952,1.66050828,True,True
4507,Li6V3P8O29,mp-1177041,P1,2.5725323668706843,0.01980190712861596,0.9714,0.74371576,False,True
4508,Li9Mn2Co5O16,mp-1175711,P1,4.245497872327198,0.08646574531250018,0.3279000000000001,2.66947584,False,True
4509,Li2AlFeO4,mp-770704,P2_1/c,2.9436201136199327,0.02589536593750008,2.9377,1.02216908,False,True
4510,Li2SnO4,mp-1222981,P-1,4.196262221360744,0.08331775538095165,2.2752999999999997,5.12774121,False,True
4511,Li10Co(SiO5)2,mp-763575,Cm,2.409372294933559,0.05078558551630419,1.9617,1.00641136,False,True
4512,Li24Ti7Cr5O36,mp-768392,P1,3.4361923800964695,0.012362594965274809,1.3016,3.32264549,False,True
4513,Li6V3P8O29,mp-1176905,C2,2.5737971557075783,0.021810243759050607,9.999999999998899e-05,1.8689261,False,True
4514,Li4Mn(PO3)6,mp-754890,P1,2.7019160670570765,0.05887951775859257,4.2073,1.34507272,False,True
4515,Li24Mn5Cr7O36,mp-768843,P1,3.642305872212431,0.03609172513888481,1.0389,2.10257189,False,True
4516,Li6MnNi3(PO4)6,mp-766375,P1,3.0751662923443,0.08855275709375565,0.0,1.28086956,False,True
4517,Li4MnCo2O7,mp-1174588,C2/m,4.035532596034007,0.14158613428571254,0.0,2.3838648,False,True
4518,Li2Pd(N2O5)2,mp-1223209,Pna2_1,2.188890464541242,0.4231088741176432,0.0,-1.40672481,False,True
4519,Li6MnV3(PO4)6,mp-1177066,P1,2.854056121917029,0.06476233326560887,0.30410000000000026,2.25017469,False,True
4520,Li4CrO5,mp-804103,P-1,2.983579453103694,2.3550236661666655,0.0,2.92712948,False,True
4521,Li3MnCoO5,mp-1174144,P1,3.9403847100507527,0.11928313549998926,0.027900000000000258,2.7162671,False,True
4522,Li4MgNi3O8,mp-1290742,P2/c,4.25792866766056,0.011676919652779283,0.22979999999999956,3.49621419,False,True
4523,Li4MnCo2O7,mp-1174457,P-1,4.07357325734145,0.12854975857142747,0.10020000000000007,2.65376206,False,True
4524,Li6W2O9,mp-766827,C2/c,5.496244001073679,0.03343617411764743,2.6091,1.14059589,False,True
4525,Li4MnCo2O7,mp-1174645,P1,4.125395886588433,0.08501409249999892,0.7468999999999997,3.34190398,False,True
4526,Li3V2(O2F)2,mp-759955,P1,3.2148961932315965,0.09348821602271595,0.7641,1.41781478,False,True
4527,Li7Mn5O12,mp-756600,C2,3.9564662849603836,0.021580592291666534,0.5089000000000001,2.78409959,False,True
4528,Li4V3O8,mp-771788,R-3,3.5666855443390584,0.09348661858334051,0.0,3.20773456,False,True
4529,Li7Mn4(P2O7)4,mp-849806,P1,2.9462422753768225,0.014752123244653248,0.14900000000000002,1.79013532,False,True
4530,Li7Si2(NiO4)3,mp-1640236,C2,3.9643180682887817,0.060485260000000096,0.5914999999999999,3.89600055,False,True
4531,Li2V(PO4)2,mp-26400,Cm,3.0271269205899145,0.055384438910246914,1.4581999999999997,1.89726973,False,True
4532,Li3AlNiO4,mp-770491,I4_1/a,3.158261775758868,0.09472970618055676,2.4289000000000005,2.86642777,True,True
4533,Li2FePCO7,mp-756441,P1,2.7327656110537597,0.17160485947918502,2.0804,0.89377971,False,True
4534,Li2Cr(PO3)8,mp-540219,P1,2.5954478238645495,0.07695983336309364,0.0,0.25033913,False,True
4535,Li2FeCO5,mp-757693,Pbam,3.2101212532274728,0.07508488034722038,0.03269999999999995,1.42125132,False,True
4536,Li7Mn2(CoO4)3,mp-1174886,P-1,4.089576074867506,0.06724272958333355,1.3209,3.61668923,False,True
4537,Li3Yb3(TeO6)2,mp-1211223,Ia-3d,6.704288203081492,0.0,0.0,1.69455157,False,True
4538,Li2CrP4(H2O3)6,mp-778674,P2_1/m,2.1471785713113003,0.03389698516891304,2.4080000000000004,2.06616491,False,True
4539,Li4MnCo2O7,mp-1174841,Cm,4.134400571587005,0.11596739892856966,0.027099999999999902,2.8397216,False,True
4540,Li6V3P8O29,mp-1177111,P1,2.5771012439742984,0.025117927998181244,1.4272999999999998,0.86350668,False,True
4541,Li9Mn2Co5O16,mp-1232429,P-1,4.220537015741391,0.05929594906250024,1.2080000000000002,3.51628075,False,True
4542,Li3Mn2O5,mp-1371686,P-1,3.8638091066887488,1.5153823825000003,0.0,3.57037706,False,True
4543,Li2Ni(PO4)2,mp-705031,P2_1,2.5386670302555534,0.13829981618589482,0.0,-0.32956524,False,True
4544,Li6V3P8O29,mp-1176900,P3,2.5894149409959315,0.037078600498181125,0.06170000000000009,1.57736771,True,True
4545,Li7Mn2(CoO4)3,mp-1175128,Pm,4.020982473283239,0.29905424208333375,0.0,2.36338349,False,True
4546,Li9Mn2Co5O16,mp-1176323,C2/m,4.188858458993696,0.11283307062500025,0.36519999999999975,2.8577599,False,True
4547,Li9Ti5(SiO8)2,mp-766170,P-1,3.6213985819111305,0.07390663234374983,0.0,6.4620481,False,True
4548,Li2CuPO4,mp-27063,Pc,3.3838084860391358,0.06448969843750074,1.6655999999999995,4.04459997,False,True
4549,Li7Mn4CoO12,mp-1175226,P1,3.9871350017157683,0.03668707927083137,0.5178000000000003,3.55774423,False,True
4550,Li9Mn2Co5O16,mp-1175749,P-1,4.237126345175677,0.08868726500000079,0.5167999999999999,2.84301369,False,True
4551,Li4MnCo2O7,mp-1174882,Cm,4.108271855975048,0.1422070542857128,0.0,2.71554931,False,True
4552,Li6NbCo3(PO4)6,mp-758592,P1,3.0413263461945332,0.08526353743749304,1.7511,2.01707633,False,True
4553,Li8(FeO2)5,mp-1643829,P-1,3.1457634972472106,0.09880517880434692,0.1431,1.54767976,False,True
4554,Li9Mn2Co5O16,mp-1175783,P1,4.172034361697573,0.07692715468750055,0.7189000000000001,2.37096637,False,True
4555,Li19V8(BO3)16,mp-1178191,P1,2.6895611922319125,0.06949790996567184,0.5949000000000002,1.99477143,False,True
4556,Li9Mn2Co5O16,mp-1175501,P-1,4.101998191863773,0.12153963031250026,0.007700000000000262,2.55761361,False,True
4557,Li4MnCo2O7,mp-1174503,P-1,4.131581092781394,0.08563910035714173,0.37559999999999993,2.38962928,False,True
4558,Li5Mn2CoO8,mp-1174567,R-3m,3.6629950380858425,0.2781149893750001,0.0,2.3714464,False,True
4559,Li6Mn3CoO10,mp-1174768,P1,3.964460502504185,0.03771868487499752,1.0162,2.76336249,False,True
4560,Li9Mn(SiO5)2,mp-1176791,P1,2.319992193954718,0.08605245204545309,1.1311,0.96777698,False,True
4561,Li7Co5O12,mp-770769,C2,4.463113003098787,0.09862190124999781,0.0,2.80954109,False,True
4562,Li9Si2Ni5O16,mp-859799,P-1,4.155100760666397,0.04171056645833282,0.5962999999999998,4.03100583,False,True
4563,Li4Co3O7,mp-1174298,P-1,4.2850934807749015,0.07112649499999701,0.7689000000000004,2.25779616,False,True
4564,Li4Co(PO4)2,mp-25995,P2_1/c,2.6948895922490728,0.0013683035000067179,3.2951,1.1153257,False,True
4565,Li4AlCr3O8,mp-768763,P2/m,3.907084911583603,0.006688679843742662,3.0624,3.47935961,False,True
4566,Li3Dy3(TeO6)2,mp-1210935,Ia-3d,6.642438558689196,0.0,3.5476999999999994,6.01982322,False,True
4567,Li2MnO2F,mp-753961,C2,3.5240190331391514,0.08923175999999522,0.2511000000000001,2.49416275,False,True
4568,Li7Mn4CoO12,mp-1647854,P-1,3.968655680770008,0.06137329552083148,0.0,3.00739358,False,True
4569,Li6MnV3(PO4)6,mp-1177045,P1,2.8526786337639245,0.05094730389060764,0.4322999999999999,2.32431948,False,True
4570,Li5GaO4,mp-774753,Pbca,2.8062300785370415,0.033545322000000155,3.7251,0.72803871,True,True
4571,Li24Ti5Cr7O36,mp-768408,P1,3.4787345107143057,0.016256242534725907,1.1905999999999999,2.14384729,False,True
4572,Li2FeO2F,mp-776489,P1,3.520675014844335,0.10207633124999926,1.6758000000000002,1.70290718,False,True
4573,Li2VCO5,mp-758001,Pbam,3.128121810111891,0.04730326638889348,0.8902999999999999,2.510239,True,True
4574,Li3MnO3,mp-754219,P2_1/c,2.9603979622320837,0.06955946857143136,2.2384,0.85846782,False,True
4575,Li2AsPCO7,mp-768153,P2_1/m,2.7211789028383238,0.06385658260417149,4.265,0.90068708,False,True
4576,Li2CrSiO5,mp-757461,P2_1/c,3.197460310475363,0.08723770788581398,0.22270000000000012,2.1030817,False,True
4577,Li2NiP2O7,mp-1327635,P-1,3.0965873051806776,2.82112794222222,0.0,3.63404945,False,True
4578,Li3Co(BO3)2,mp-778474,P2_1/c,2.9257157362970294,0.08255078159721485,0.8825000000000001,1.20365076,False,True
4579,Li4Be3As3ClO12,mp-560072,P-43n,2.8863387758285057,0.0,4.4494,-0.60672322,True,True
4580,Li6MnV3(PO4)6,mp-887424,P1,3.0007113058744954,0.02110519126560817,0.4981,2.02954968,False,True
4581,Li2FeCSO7,mp-771011,P2_1/m,2.567651822906984,0.06657810645833795,3.9162999999999997,1.049209,False,True
4582,Li2NiH8(CO5)2,mp-771916,P2_1/c,2.198467679157188,0.052191957173914005,4.1396999999999995,0.09634361,False,True
4583,Li3CoPCO7,mp-771339,P2_1,2.7845667707393815,0.03951314980769194,2.6370999999999998,1.5649998,False,True
4584,Li8Fe2O7,mp-779474,P2_1/c,2.6601561227532184,0.07021749213235573,2.5120000000000005,0.84586871,True,True
4585,Li5(CoO2)4,mp-779758,Cmc2_1,4.746835283251598,0.12214559805146763,1.0098000000000003,4.66414918,False,True
4586,Li7Mn5O12,mp-1978357,P-1,3.8786518045154503,0.03435502666666679,0.6686999999999999,3.37314341,False,True
4587,Li6Mn3CoO10,mp-1174282,Cm,3.9227466072353208,0.06488242087499785,0.6440000000000001,3.4397956,False,True
4588,Li2VOF4,mp-1312877,P1,2.7543492521600728,0.004563267812500271,2.0690999999999997,-1.08218116,False,True
4589,Li6Cu(B2O5)2,mp-1198701,P-1,2.4758474626353055,0.011520566111113517,0.7405999999999999,2.14745376,False,True
4590,Li3Co2(PO4)3,mp-584742,P2_1/c,3.1693570121465204,0.08380682090624525,0.8867000000000003,2.13510716,False,True
4591,Li3V2P5O18,mp-697772,P-1,2.9766982016904207,0.07581492851187654,1.1034,1.75722896,False,True
4592,Li9Mn2Co5O16,mp-1175778,P1,4.230275236030858,0.07779248218750023,0.49829999999999997,2.50680039,False,True
4593,Li10Fe5Co3O16,mp-763869,P1,4.249984221405963,0.08429156838235219,0.2833000000000001,3.10572873,True,True
4594,Li9Mn2Co5O16,mp-1175923,P1,4.170819840897235,0.07636836218750087,1.0404,3.27271199,False,True
4595,Li9Mn2Co5O16,mp-1176243,P1,4.182512042366777,0.10876654750000014,0.1894,2.92233616,False,True
4596,Li2AlCoO4,mp-754121,Pmn2_1,3.165791727330294,0.0768991253124991,1.5069000000000001,1.30620267,False,True
4597,Na2Li3FeO4,mp-540965,Pnnm,2.766456855874513,0.0,2.9156,0.96331968,True,True
4598,Li3Mn2(PO4)3,mp-863434,Ia-3d,3.3266505126257724,0.08101057750004959,0.0,3.01301033,False,True
4599,Li5V3P8O29,mp-1177080,P1,2.5453169759119465,0.03453207075925846,0.9453999999999999,0.42833214,False,True
4600,Li4MnCo2O7,mp-1174650,C2/m,4.059869451071826,0.2137404589285703,0.0,2.4941525,False,True
4601,Li5Cr3FeO8,mp-759913,P1,3.974810867913448,0.06766647833334005,2.3598,3.17855458,False,True
4602,Li7Mn2(CoO4)3,mp-1174903,P2/m,4.085911775470806,0.06248442583333347,1.0779999999999998,2.31997718,False,True
4603,Li9Mn2Co5O16,mp-1175985,P1,4.199045218682058,0.2572267406250006,0.0,2.39037378,False,True
4604,Li4MnCo2O7,mp-1174765,P1,4.084672244656894,0.10703146642856964,0.3571,2.54783331,False,True
4605,Li2MnPCO7,mp-754320,P1,2.7160027504058224,0.02733291854166353,0.40369999999999995,1.25654452,False,True
4606,Li2CrO2,mp-755566,C2/m,3.245169892630443,0.07637419749999985,1.4700000000000002,2.63813496,False,True
4607,Li2FePCO7,mp-768707,P2_1/c,2.7093119549058793,0.021842016770852624,2.449,2.97844357,False,True
4608,Li2BSeO4,mp-770832,P2_1/c,2.732074955225923,0.05752548495769538,2.0982,0.18601169,False,True
4609,Li2CrP2O7,mp-761069,P2_1/c,2.9182652345479556,0.03092011843752651,2.3913,3.01567677,False,True
4610,Li4Mn(OF)2,mp-764786,Cmcm,2.5778631218608794,0.09208340101851853,2.7762000000000002,0.48049795,False,True
4611,Li6MnVP2(CO7)2,mp-753882,Pm,2.7003001980997436,0.09538266836538423,2.6874000000000002,3.29117787,False,True
4612,Li3MnCoO5,mp-1174101,P1,4.019753192800098,0.050978518499990244,1.6226,1.96169184,False,True
4613,Li3TaO4,mp-35417,I4/mmm,5.936820554652662,0.06420910531250001,1.5777,1.89013349,False,True
4614,Li5Mn2CoO8,mp-1174098,C2/m,3.9188144695824487,0.05720694218750033,1.0512000000000001,2.30510745,False,True
4615,Li9Mn2Co5O16,mp-1175425,P-1,4.190207590994202,0.07748158281250017,0.8098000000000001,3.22891238,False,True
4616,Li2Co(CO3)2,mp-1178046,P2_1/c,2.2823746542326773,0.025776833863639936,2.9459999999999997,-0.183532,False,True
4617,Li4V2Si(PO6)2,mp-1177241,C2,2.89833009986598,0.08221003662699022,2.0116,2.49655697,False,True
4618,Li2MnSi4O11,mp-757188,I4/m,2.7425012750178293,0.080806129555552,0.06369999999999987,2.08249163,False,True
4619,Li9Mn2Co5O16,mp-1176132,P1,4.123983974525983,0.12402222437500043,0.10109999999999975,2.68606398,False,True
4620,Li6Mn5O12,mp-779719,P1,3.8727551579018353,0.04248003586957161,0.25680000000000014,2.55263629,False,True
4621,Li2Ti(BO3)2,mp-755783,P-1,2.292483065575525,0.06563217740257787,2.9039,-0.10906858,False,True
4622,Li4Mn3O7,mp-1174410,C2/m,3.8671027242441456,0.04217956964285641,0.8977000000000004,3.68523031,False,True
4623,Li5VO4F,mp-758384,Cc,2.450201105190697,0.045908018863635824,1.1479,2.11333591,False,True
4624,Li9Mn7O16,mp-1100526,P-1,3.9162386966976004,0.028142874531249973,0.685,2.92473265,False,True
4625,Li2Cr(CO3)3,mp-780684,Ama2,2.462636128589893,0.07404349025925772,0.019500000000000003,0.1076572,False,True
4626,Li9Mn2Co5O16,mp-1100657,Cm,4.1419010450480505,0.1523690884375002,0.0,2.4292082,False,True
4627,Li2CuSiO4,mp-752858,Pmn2_1,3.388340819767548,0.06300485875000028,0.0,2.55476383,False,True
4628,Li4MnCo2O7,mp-1174819,Cm,4.154831438366554,0.10835689499999912,0.0,3.03812103,False,True
4629,Li9Mn2Co5O16,mp-1175550,P-1,4.20449601628209,0.09839232593750058,0.0,2.57492673,False,True
4630,Li9Mn2Co5O16,mp-1100588,Pm,4.150500958886961,0.11044749812500054,0.0,2.87144533,False,True
4631,Li5V3P8O29,mp-1177051,P1,2.5614521386644133,0.03659428953703614,1.1636,0.41799472,False,True
4632,Li9Mn2Co5O16,mp-1100609,Pm,4.183372492439757,0.09474958375000053,0.0,3.01524026,False,True