,formula,mp-id,crystal system,density,energy above hull,band gap,efermi,is gap direct,theoretical
5790,Li11V6O5F19,mp-777270,P1,3.029839207485241,0.07426791753050299,0.4537000000000002,2.34456639,False,True
5791,Li7Mn4CoO12,mp-1653341,P2,4.00535365390563,0.023987930520831924,0.69,3.05115045,False,True
5792,Li3V2(CO3)4,mp-753641,P1,2.321864538706932,0.07879265647321443,0.9352,1.65909396,False,True
5793,Li4Co3O7,mp-1174239,P-1,4.252961443347614,0.08153282035713971,0.0,2.00352465,False,True
5794,Li7Mn5O12,mp-1644153,P-1,3.872051228103523,0.027980441666667133,0.9553000000000003,2.66530661,False,True
5795,Li6P8W3O29,mp-1176966,P1,3.5533435607123125,0.02931711985507235,2.88,0.971982,False,True
5796,Li3Fe(Si2O5)3,mp-777799,P6/mcc,2.5456879542044075,0.049132446499995375,3.6605999999999996,1.2489046,False,True
5797,Li2FeOF3,mp-764977,Pc,3.1603356997300223,0.09160499825395707,2.2428,-0.1357632,False,True
5798,Li3Sn2(PO4)3,mp-758224,P1,3.1302070373940127,0.08410856920832721,2.936,1.98541253,False,True
5799,Li7Co5O12,mp-1174377,C2/m,4.345584883392328,0.04555601791666408,0.2096,2.7831134,False,True
5800,Li5V3P8O29,mp-759335,P1,2.5429605121076944,0.033195518092592025,1.0917000000000001,0.34234717,False,True
5801,Li7Mn2(CoO4)3,mp-1174867,P-1,3.966996148194519,0.13715943833333366,0.0,2.48008631,False,True
5802,Li2Fe(PO4)2,mp-31815,P2_1/c,2.402997296375096,0.10645161649038304,2.1343,-0.57786611,False,True
5803,Sr5Li25La7Nb8O48,mp-686239,P1,4.402154224865503,0.10353088034721392,3.2108999999999996,5.39851062,False,True
5804,Li9Mn2Co5O16,mp-1175667,C2,4.163394831461275,0.0958919653125001,0.014899999999999913,2.66188079,False,True
5805,Li32Ti13Cr3O48,mp-1177824,P1,3.3687833947791375,0.006556652838541233,1.5932000000000002,1.90184778,False,True
5806,Li4Co2C4SO16,mp-770944,P1,2.8623407630728197,0.08744368672838565,0.06580000000000008,1.47845574,True,True
5807,Li9Co7O16,mp-1175401,P-1,4.411036237509655,0.04309323125000031,0.6325000000000003,3.05646253,False,True
5808,Li3MnV(PO4)3,mp-779038,P1,3.00685030142698,0.029278962562496957,0.6344999999999998,1.94967626,False,True
5809,Li6Fe5O12,mp-780305,P1,3.8556917258229655,0.059596636226706856,0.0,1.96735912,False,True
5810,Li9Mn2Co5O16,mp-1100639,Cm,4.070583466196182,0.21317692937500077,0.0,2.49551815,False,True
5811,Li4MnCo2O7,mp-1174742,P1,4.080538779948128,0.12998765071428497,0.11359999999999992,2.79132346,False,True
5812,Li32Ti3Cr13O48,mp-777044,P1,3.536870282979153,0.018748810807293737,1.1183999999999998,2.14089623,False,True
5813,Li2MnPCO7,mp-768948,Pc,2.719277993046807,0.029313709999996718,0.0,1.83456416,False,True
5814,Li3MnO4,mp-764778,I-43m,3.3615690320519787,0.06621107812499893,0.0,1.39920794,False,True
5815,Li6FeCoP2(CO7)2,mp-753777,Pm,2.891994191270726,0.1319345975000008,0.0,3.93403313,False,True
5816,Li3MnV(PO4)3,mp-768531,P-1,2.825723947143663,0.02612996018749758,0.8828999999999998,1.42919499,True,True
5817,Li8Fe2O9,mp-772983,P-1,3.0307869294891936,0.01733211249999922,0.2701,1.69503863,False,True
5818,Li11(FeO3)4,mp-849463,Pm,2.863321104053893,0.11516879134259206,0.0,0.85166284,False,True
5819,Li2CuSiO4,mp-758325,P2_1/c,3.2893335656625364,0.0769764421875001,0.0,2.32061898,False,True
5820,Li2Ni(PO4)2,mp-540059,P2_1,3.068544703224152,0.12538772753204963,0.0,1.16956113,False,True
5821,Li4MnCo2O7,mp-1174748,P1,4.12710879973594,0.10892895142857029,0.17779999999999996,2.93825542,False,True
5822,Li2AlCoO4,mp-756579,Pc,3.129249704211288,0.07244569843749904,1.7210999999999999,1.29878353,False,True
5823,Li5Mn2CoO8,mp-1173979,C2/m,3.944404499741271,0.04691070750000037,1.2190999999999996,2.46782862,False,True
5824,Li7Mn4CoO12,mp-1175320,Pm,3.9534559015066666,0.08102620093749824,0.0,2.73750222,False,True
5825,Li4MnCo2O7,mp-1174702,P1,4.086304722543145,0.10513172428571327,0.0,2.45183851,False,True
5826,Li2IO,mp-1210851,Pnma,3.084570298427658,0.2867035906250006,0.39149999999999996,0.76620374,False,True
5827,Li7Mn2(CoO4)3,mp-1174875,P-1,3.9513682568067336,0.1321650166666677,0.0,2.5555706,False,True
5828,Li2FeO2F,mp-776471,C2/c,3.5490235469265974,0.10078367416666634,1.6863000000000001,1.86402628,False,True
5829,Li24MnCr11O36,mp-770667,C2,3.5685931108637936,0.025798095833333257,0.0,3.21595866,False,True
5830,Li4MnCo2O7,mp-1174664,C2/m,4.046171925771486,0.15220453785714128,0.0,2.46730578,False,True
5831,Li5CuP3O11,mp-761254,P-1,2.880262222440261,0.06590208899999439,0.34350000000000014,2.32735664,False,True
5832,Li7Mn2(CoO4)3,mp-1175052,P1,3.9719795607522084,0.13253140333333402,0.0,2.58481825,False,True
5833,Li7Mn4CoO12,mp-1175269,C2,4.013605509011249,0.020814055937497855,0.8241,2.99485833,False,True
5834,Na3Li3Fe2P2(CO7)2,mp-776731,P1,2.854896722609586,0.03472025923076938,0.0,2.97106782,False,True
5835,Na4Li3(FeO4)2,mp-768415,Pc,2.7113816531704322,0.09171016026610701,0.0,0.44444674,False,True
5836,Li7Mn5O12,mp-1175314,P-1,4.133671803861651,0.013231291458333239,0.9682,2.84544426,False,True
5837,Li3Co2OF5,mp-754771,C2,3.741084880490664,0.12848741022727062,1.3195999999999999,2.61112265,False,True
5838,Na3Li3Mn2P2(CO7)2,mp-772507,P1,2.7977217896631306,0.031233804807689225,3.487,1.92887326,False,True
5839,Li2CrP3O10,mp-774964,P2_1/c,2.2690666534952704,0.05924090166666662,3.2399,-0.19091592,False,True
5840,Li2Cr(Si2O5)3,mp-775340,Imma,2.7488549409800997,0.08210476488425744,0.0,1.23072887,False,True
5841,Li4V3O8,mp-775320,R-3,3.3613996179929155,0.06674209291667399,1.723,1.82823018,False,True
5842,Li8Fe7O15,mp-1176945,C2/m,4.204956520057679,0.0710919103333385,0.0,2.64102731,False,True
5843,Li2Fe(Si2O5)3,mp-766984,P2_1,2.5550922578412814,0.08808195774305272,0.33240000000000003,0.94041193,False,True
5844,Li9Mn2Co5O16,mp-1175988,P1,4.223752176238092,0.1774701387500004,0.24460000000000015,2.85759612,True,True
5845,Li3V2(CO5)2,mp-758380,Pmc2_1,3.095782535545278,0.07152120544117757,0.001100000000000101,1.9223491,True,True
5846,Li7Mn5O12,mp-1175317,P-1,3.876745316335219,0.028707546874999323,0.0,2.67894574,False,True
5847,Li2Cr(BO2)5,mp-772433,P2_1/c,2.3350086154167498,0.07916740101853392,1.9858000000000002,0.34416691,False,True
5848,Li3FeIrO5,mp-1222630,P-1,6.160905470729429,0.013995369349999898,0.0,3.76993713,False,True
5849,Li4MnCo2O7,mp-1174815,Cm,4.072521011012067,0.1352930103571417,0.0,2.56418948,False,True
5850,Li6Hf2O7,mp-772185,C2/c,5.5985431093711115,0.0,4.4282,0.93437671,True,True
5851,Li4V3P8O29,mp-1177226,P1,2.5054703720649307,0.04385877696969587,0.5949,0.35294631,False,True
5852,Li24Mn11CrO36,mp-770622,C2,3.7306707527758025,0.007116576875012548,1.2310999999999999,1.9486182,False,True
5853,Li2Si3NiO8,mp-757113,P2_1,2.7619885708795073,0.08326701982142382,3.5043999999999995,1.58361278,False,True
5854,Li9Sn3P8O29,mp-779010,P-3c1,2.9945259027534687,0.08011413519559074,0.0,3.58293585,False,True
5855,Li3Mn2(PO4)3,mp-1244614,Pc,2.9911666574617466,0.026678837375048836,1.0426,1.45044927,False,True
5856,Li9Mn2Co5O16,mp-1176139,P1,4.165912337547188,0.08782622000000018,0.8069000000000002,3.33824303,False,True
5857,Li7V3P8O29,mp-760223,P1,2.582973736295152,0.021203289818260806,0.06499999999999995,1.53953765,False,True
5858,Li3FePCO7,mp-757108,P2_1,2.8362236524033464,0.05751612038461662,3.9081,1.53236899,False,True
5859,Li3Ti2(PO4)3,mp-758393,C2,2.7972272718249434,0.09929896248332781,0.0,4.71068029,False,True
5860,Li2CrSiO4,mp-752766,P3_121,2.980473293092047,0.04141505354166153,3.0789,2.58067999,False,True
5861,Li7Mn4CoO12,mp-1650226,P-1,3.9826329966044023,0.022437569479166086,0.4849000000000001,3.17313245,False,True
5862,Li8TiMn3O12,mp-767679,P2,3.6685132543070003,0.08769003166666778,1.0081000000000002,3.27832858,False,True
5863,Li5Mn2CoO8,mp-1295190,C2/m,3.931647883455307,0.07906154062500015,0.0,3.17261616,False,True
5864,Li5CuHO4,mp-758945,Pnma,2.592623635782823,0.07830882420454355,0.0,1.13866494,True,True
5865,Li2Cu(Si2O5)2,mp-1178070,P2_12_12_1,2.477168491206976,0.08550812911764805,0.6419999999999999,1.2012911,False,True
5866,Li6MnCrP2(CO7)2,mp-753761,Pm,2.701223719131848,0.06234575731971148,1.8815,2.91694425,False,True
5867,Li7Mn2(CoO4)3,mp-1174530,P-1,4.102837790358856,0.07377382708333347,0.6963000000000004,3.21768979,False,True
5868,Li3MnOF3,mp-755504,C2/m,3.1475925720817957,0.09769907937499944,2.1946000000000003,2.29885512,False,True
5869,Li3CrB4O9,mp-752710,P2_1/m,2.630141963293301,0.09155114485294646,1.7649000000000001,1.56655513,False,True
5870,Li7Mn5O12,mp-1175366,P2/m,3.9049049716833992,0.07043881479166636,0.0,3.24102037,False,True
5871,Li7Mn2(CoO4)3,mp-1175147,Pm,4.076003439706705,0.2499766562500012,0.0,2.82656202,False,True
5872,Li9Mn2Co5O16,mp-1176051,P1,4.200615607179002,0.0933303612500005,0.3466,2.9284462,False,True
5873,Li3FeO4,mp-1276702,Immm,3.348351615434176,0.06128701062499964,0.0,1.22339443,False,True
5874,Li2CoPO4F,mp-770853,Pnma,3.327449720100634,0.035994524583332854,2.6148000000000002,2.23086017,True,True
5875,Li4V3P8O29,mp-760770,P1,2.495766606162371,0.04685020481060409,0.6819999999999999,0.43997817,False,True
5876,Li4Co3O7,mp-1174257,P-1,4.201221092706851,0.09756430499999791,0.5083000000000002,2.95181414,False,True
5877,Li2Mn(BO3)2,mp-779312,P2_1/c,3.0863134066493556,0.08120216068181563,0.2499,1.67711999,False,True
5878,Li5Mn3O8,mp-1174778,P-1,3.76768454996521,0.0531934090624997,1.0306000000000002,2.29443934,False,True
5879,Li6Mn2OF11,mp-1344128,P1,3.0269556099538746,0.650566424395838,0.4061,-0.17364738,False,True
5880,Li7FeNi3(PO4)6,mp-1177019,R3,2.9352196434270605,0.08609326996951161,0.028299999999999992,1.0241171,False,True
5881,Li7Mn2(CoO4)3,mp-1175096,Cm,4.047494457031934,0.09953653416666697,0.0,2.24232408,False,True
5882,Li4MnCo2O7,mp-1174524,P-1,4.080942555614802,0.1363894196428559,0.08499999999999996,2.70436775,False,True
5883,Li2CoP2O7,mp-26333,P2_1/c,2.975237667354243,0.027443004305536256,3.2493999999999996,1.31091839,False,True
5884,Li8CrO6,mp-780493,P6_3cm,2.451915325761216,0.003891898499999158,1.7651999999999997,0.56186518,False,True
5885,Li7(CoO3)2,mp-1402504,P1,2.6018764424526135,2.281647992166665,0.20310000000000006,2.59397201,False,True
5886,Li3CoO3,mp-755926,P-1,3.0073834512439346,0.04512676214285971,1.2294,0.93232611,False,True
5887,Li12Cr3CoP4(CO7)4,mp-1178129,Pm,2.740191324793885,0.07424817506610726,1.5513,3.18877305,False,True
5888,Li4MnCo2O7,mp-1174419,P-1,4.148428668127193,0.09013870535714208,0.8776999999999999,2.39609028,False,True
5889,Li24Ti5Cr7O36,mp-768431,P1,3.481484275197579,0.01578616503472663,1.2212,2.16061722,False,True
5890,Li9Mn2Co5O16,mp-1175685,P1,4.1975499963749545,0.09972144531250038,0.0,2.89116683,False,True
5891,Li7Nd3Zr2O12,mp-1198740,I4_1/acd,5.290959534585744,0.01340611161458316,4.2749,6.03927235,False,True
5892,Li7Mn(OF)3,mp-799423,P1,2.3166740583977554,1.7137896855952368,0.0,1.80372571,False,True
5893,Li24Mn7Cr5O36,mp-768929,P1,3.6674275611060367,0.032073707847223076,1.119,1.99112782,False,True
5894,Li2Mn(BO3)2,mp-776779,P2_1/c,2.7948864239407976,0.07648462636363451,1.7429999999999999,0.24919652,False,True
5895,Li9Mn2Co5O16,mp-1175775,P1,4.246880804662698,0.07978838781250008,0.5312000000000001,2.70302656,False,True
5896,Li2V(CO3)2,mp-752552,R-3,2.7351641106539124,0.0502538546306841,2.2169000000000003,3.06921176,False,True
5897,Li9Mn7O16,mp-1100513,P-1,3.920485615077567,0.039257496718749785,0.6052000000000004,2.80043107,False,True
5898,Li3Co2O5,mp-1174026,C2/m,4.117084850676752,0.07161837250000058,0.20710000000000006,2.43136022,False,True
5899,Li3Mo2(PO4)3,mp-26535,C2/m,3.711205152100133,0.026550584499971386,2.6210999999999998,3.36243797,False,True
5900,Li6Mn3CoO10,mp-1174834,P1,3.856585843272331,0.09908090437499695,0.07349999999999968,2.62539211,False,True
5901,Li9Mn2Co5O16,mp-1100631,Cm,4.056219138232791,0.20619800312500036,0.0,2.51400353,False,True
5902,Li3V(BO3)2,mp-772630,P2_1/c,2.73952453955804,0.05197253145833791,2.6206000000000005,4.21093201,False,True
5903,Li10Fe(SiO5)2,mp-758900,C2/m,2.3993393875251305,0.05499214119565021,1.8141000000000003,1.0312382,False,True
5904,Li3GeO4,mp-1211307,Pmn2_1,2.9519235005700057,0.08418716254166547,0.0,-0.71707225,False,True
5905,Li4Mn2(PO4)3,mp-772945,P-1,2.844822129699728,0.02723754678567225,4.1215,1.89597259,False,True
5906,Li2VSi2O7,mp-1177775,P1,2.8044922561862955,0.09441994458333358,1.4198,3.22714079,True,True
5907,Li2MnSi3O8,mp-753994,P1,2.508798141720446,0.07565398500000686,2.3135000000000003,2.10129918,False,True
5908,Li9Mn2Co5O16,mp-1176120,P1,4.159902856835697,0.10570417156250045,0.08879999999999999,2.60013532,False,True
5909,Li5NiO4,mp-771876,Pbca,2.741982344544634,0.010654286083330966,1.5268000000000002,0.6996204,True,True
5910,Cs2Li2GeO4,mp-8313,P-1,4.365398180053224,0.0,3.5457,0.78248109,False,True
5911,Li7MnCo3(PO4)6,mp-887355,R3,2.9544561469908146,0.11151259185975348,0.0,1.83935064,False,True
5912,Li9Mn2Co5O16,mp-1100633,Cm,4.150777889947562,0.1079470571875003,0.0,2.49826964,False,True
5913,Li2Fe(SO4)2,mp-780594,Pbca,2.872042014550411,0.007571663173077781,4.4041999999999994,1.59874977,False,True
5914,Li3MnCoO5,mp-1174168,Cm,3.9553764297974103,0.09694461699998946,0.0,2.34897461,False,True
5915,Li7Mn2(CoO4)3,mp-1174508,C2/m,4.115568166367833,0.09926314750000031,0.0,2.5462052,False,True
5916,Li6MnFe3(PO4)6,mp-771062,P1,2.9781223644231316,0.04685117156249774,1.1778000000000002,1.44956464,False,True
5917,Li4(CuO2)3,mp-758475,Cm,4.019507954103518,0.008213397307697434,0.0,2.22657361,False,True
5918,Li24Mn5Cr7O36,mp-769037,P1,3.6238424810358363,0.03625494027777343,1.0885,2.02479318,False,True
5919,Li2V(PO4)2,mp-26415,P2_1/c,2.8070396274087264,0.0285177242948631,1.3100999999999998,1.08362597,False,True
5920,Li7Mn4CoO12,mp-1175265,C2,3.967243755147014,0.04456378177083131,1.0080999999999998,2.71002183,False,True
5921,Li2Mo(PO3)5,mp-540310,P2_1/m,2.6476301697479316,0.033342100724637724,4.4309,1.09579758,False,True
5922,Li9Mn2Co5O16,mp-1175753,P1,4.174026718041298,0.07860295781250048,0.6082999999999998,2.96467078,False,True
5923,Li4FeO4,mp-755232,P-1,2.7102393127634024,0.06912784305555775,0.0,1.02043092,False,True
5924,Li9Fe7(PO4)12,mp-777004,P1,2.8208806884159907,0.04721592603618152,0.0,0.33588567,False,True
5925,Li4MnCo2O7,mp-1174814,Cm,4.0812081567010905,0.111988454642856,0.0,2.87791401,False,True
5926,Li2B8SeO15,mp-1198324,P2_1/c,2.261370696530698,0.0,4.8776,4.3855484,False,True
5927,Li7V(O2F)2,mp-1323962,P1,2.473725835200467,0.7163322242857157,1.5278,2.18279462,False,True
5928,Li2Si2NiO6,mp-1645783,Pc,2.9151761738510795,0.03581627636362317,3.7949,5.24882174,True,True
5929,Li2Fe(PO3)4,mp-759012,P2_1/c,2.477118725641621,0.08462266219299419,3.7503,1.4105601,False,True
5930,Li7Mn2(CoO4)3,mp-1175120,Cm,4.056639020247539,0.22634648333333374,0.0,2.61800549,False,True
5931,Li7Fe4(PO4)6,mp-772517,Cc,2.990672360846007,0.046594614207338125,1.6292,3.47406702,False,True
5932,Li4MnCrO6,mp-1177331,C2,3.651978644146204,0.03815864958332149,1.1303999999999998,1.98918363,True,True
5933,Li2Ni(PO3)4,mp-757511,P2_1/c,2.6106978614356646,0.09230382627193201,4.5107,0.68114629,False,True
5934,Li8FeO6,mp-763305,Cmc2_1,2.3345895064414477,0.02475447133333386,0.0,-0.17108148,False,True
5935,Li8Mn2O7,mp-770513,P2_1/c,2.6554727015049036,0.10633301544117835,0.9121999999999999,1.29806822,True,True
5936,Li9V3P8O29,mp-27013,P-3c1,2.635631124614127,0.0001637682482709124,3.489,1.83341627,False,True
5937,Li5Fe4(P2O7)4,mp-849564,P1,3.0452590339675876,0.06093572514815193,1.3356000000000001,1.98368134,False,True
5938,Li8Fe7O15,mp-756644,C2/m,4.150654810038043,0.617162803333339,0.0,2.48056993,False,True
5939,Li3Sn2(PO4)3,mp-757966,C2/m,3.7736436674259317,0.09170023383332637,0.0,4.85986777,False,True
5940,Li7Mn2P7O24,mp-757328,P2/c,2.7200650238769746,0.05671037772914378,1.2326,1.22739541,True,True
5941,Li8(CoO2)5,mp-754754,C2/m,3.378981236366764,0.11811697807065258,0.0,1.51627865,False,True
5942,Li5Co3O8,mp-1173963,R-3m,4.04271878565675,0.06724941124999795,0.0,2.23891545,False,True
5943,Li9Mn2Co5O16,mp-1175591,P-1,4.136040389023549,0.07915466062500087,1.3824999999999998,3.47374375,False,True
5944,Li4V2Si(PO6)2,mp-1255615,P1,2.901432857053831,0.08296858412699049,1.9667000000000003,2.5266294,True,True
5945,Li7Mn4CoO12,mp-1667092,Pm,3.9575787749907785,0.06274574927083165,0.0,2.92607809,False,True
5946,Li9Mn2Co5O16,mp-1175764,P1,4.247595736377677,0.056271312500000725,1.5252000000000003,3.58068918,False,True
5947,Li3MnCoO5,mp-1174029,C2/m,4.0022680980342535,0.06099789249998899,1.0549,2.34039349,False,True
5948,Li7Mn5O12,mp-1640981,P1,3.8556996973156568,0.03137084479166674,1.0151000000000003,2.59864277,False,True
5949,Li9Mn2Co5O16,mp-1100747,C2/m,4.142641232073191,0.11614648625000079,0.0,2.70629456,False,True
5950,Li9Mn2Co5O16,mp-1175992,P1,4.198716552222073,0.11230264562500025,0.3562000000000003,2.6661922,False,True
5951,Li2VOF4,mp-1307846,Cc,2.7595380416546287,0.004673701249999773,2.0317,0.95194086,True,True
5952,Li2Cr(CO3)2,mp-754838,Fdd2,2.4757190269676728,0.0645232786931853,3.0916000000000006,1.04017822,False,True
5953,Li2CoSiO4,mp-764642,I-42m,3.2539037866457825,0.025687036562493937,2.2653999999999996,2.33604855,False,True
5954,Li2FeP2HO8,mp-766101,P2_1,2.978401105528178,0.0,1.9142000000000001,1.34322789,False,True
5955,Li4Mn3P4(HO8)2,mp-779055,P2_1/c,2.783020889921179,0.0485057207758679,1.8571999999999997,2.62237934,False,True
5956,Li3V2(O2F)2,mp-760200,C2/m,3.286511534952342,0.07941265397726216,0.0,1.71979912,False,True
5957,Li6V3P8O29,mp-1176923,P1,2.578949320213997,0.019390331802529914,1.3890000000000002,0.58425104,False,True
5958,Li2FeP2O7,mp-772539,P2_1,2.723711767851611,0.09006881982635839,3.4639999999999995,5.2675676,False,True
5959,Li7Mn2(CoO4)3,mp-1175100,Cm,4.071167311471714,0.10680199541666724,0.0,2.78810655,False,True
5960,Li2RuO3,mp-4630,C2/m,5.113188387331899,0.0,0.0,3.7408536,False,True
5961,Li9Mn2Co5O16,mp-1175878,P1,4.19599317829949,0.07355264250000015,1.1602000000000001,2.3504665,False,True
5962,Li2VO2F,mp-763345,P1,3.310874692647997,0.10637957458332892,1.1166,2.94237654,False,True
5963,Li4V2P4H3O16,mp-752967,P1,2.7288735057639935,0.026877941072327438,0.5921000000000003,3.19194112,False,True
5964,Li3Cr(PO4)2,mp-766421,P1,2.5834471311615212,0.07788309696428186,1.748,0.9148398,False,True
5965,Li9(FeO4)2,mp-774501,C2,2.5469491140147382,0.08496025078947333,0.046499999999999986,0.16430817,False,True
5966,Li12Mn7V(PO4)12,mp-1178090,P1,2.9685481920721672,0.011519824450012095,0.6222000000000001,1.59886708,False,True
5967,Li2CoSiO4,mp-1248621,Pca2_1,3.045044957619018,0.0466427904687432,3.083,1.65005399,False,True
5968,Li3MnCoO5,mp-1174056,P-1,3.8916660723888525,0.13811799149998905,0.0686,2.47466519,False,True
5969,Li3Co2Si3O10,mp-759853,P-1,3.008177681590567,0.071742770555562,0.0,1.87311477,False,True
5970,Li6Mn3CoO10,mp-1174816,P1,3.9430427950995144,0.06297678937499729,0.5333999999999999,2.71844668,False,True
5971,Li7FeO6,mp-752471,R3,2.6751563256128432,0.05430037928571352,0.3176,0.73084382,False,True
5972,Li3(FeO3)2,mp-752654,C2/m,3.576018098305774,0.06968949415584191,0.0,1.42953699,False,True
5973,Li4Al3Ge3ClO12,mp-556886,P-43n,2.7770942447494744,0.00011774304348222131,4.1175,-0.56530302,True,True
5974,Li10Mn3V5O16,mp-764265,P1,3.8954481089048203,0.08322488914215498,0.0,3.94395684,False,True
5975,Li9Mn2Co5O16,mp-1175736,P1,4.216877186590177,0.07351151531250011,1.2907000000000002,2.19955195,False,True
5976,Li6V3Fe(PO4)6,mp-1176939,P1,2.8923239511969525,0.0,1.6169000000000002,2.05390477,False,True
5977,Li9Mn2Co5O16,mp-1175976,P1,4.222156320999005,0.09568922125000068,0.27539999999999987,3.29295484,False,True
5978,Li2ZnSiO4,mp-17288,P2_1/c,3.282875545172151,0.0,3.6329999999999996,0.84741641,False,True