,formula,mp-id,crystal system,density,energy above hull,band gap,efermi,is gap direct,theoretical
2900,Li9Mn2Co5O16,mp-1100620,Cm,4.102221542927396,0.13387764000000058,0.0,2.58009967,False,True
2901,Li2VPO4F,mp-776064,Pnma,3.0373124036863803,0.017004511764408647,2.4164000000000003,3.7293807,True,True
2902,Li6MnV3(PO4)6,mp-777863,P1,3.2906956383566106,0.06745591139060814,0.4703000000000004,3.46791658,True,True
2903,Li3SiBiCO7,mp-768609,P2_1/m,3.936661021733736,0.07384226743589295,3.1966,1.8760218,False,True
2904,Li9Mn7O16,mp-1100538,P-1,3.9376601192457588,0.03435915453125027,0.0,3.08159899,False,True
2905,Li3Bi2(PO4)3,mp-684504,P2_1/c,4.229129128452721,0.03592432012499991,3.8832000000000004,1.6204406,True,True
2906,Li3Tm3(TeO6)2,mp-1211248,Ia-3d,6.945046966138018,0.0,3.1382,3.01924908,True,True
2907,Li2NiP2O7,mp-765592,P-1,3.1421413417161794,0.03087812763888742,4.6702,1.53062263,False,True
2908,Li3MnPCO7,mp-755068,P-1,2.548762892222596,0.09414958115384664,3.7565999999999997,1.15786572,False,True
2909,Li6Mn3Ni(PO4)6,mp-769093,P1,3.0313508140170216,0.053244932008921886,0.0,2.20388262,False,True
2910,Li4V2(PO4)3,mp-770403,R-3c,2.9179114328833093,0.07630888500000577,0.20920000000000005,3.71584897,False,True
2911,Li7Mn2(CoO4)3,mp-1174906,C2,4.124957380721336,0.06151996333333454,0.7034000000000002,2.36922273,False,True
2912,Li4MnV(PO4)3,mp-768583,P-1,2.8352367136420917,0.028141952142856752,1.8183999999999998,2.04083478,False,True
2913,Li4MnCo2O7,mp-1174574,C2/m,4.124539765016932,0.146839748571427,0.0,2.62095731,False,True
2914,Li3CuPCO7,mp-772755,P2_1,2.93556706517994,0.04938646192308216,0.15739999999999998,2.07828109,False,True
2915,Li24Ti5Cr7O36,mp-771365,P1,3.4785953658997895,0.01622739489583669,1.1757999999999997,2.08283871,False,True
2916,Li7Mn5O12,mp-1175323,P-1,3.877416398710023,0.04167643166666668,0.6768000000000001,2.76341748,False,True
2917,Li2MnP2O7,mp-540421,P-1,2.8899267685257195,0.040063251249998544,4.1701,1.77030806,False,True
2918,Li5V3P8O29,mp-1177130,C2,2.5587689000692135,0.03779232187036907,0.3427,1.03616057,True,True
2919,Li4Cr2Si4O13,mp-759372,Pna2_1,3.1139332724190774,0.040423533043478344,3.0944,3.50570864,True,True
2920,Li3TaO4,mp-558294,P2/c,6.0105664376723595,0.0005245480208326825,4.4392,1.05795981,False,True
2921,Li14Mn2O9,mp-770530,P-3,2.3642208826368605,0.04254417159999502,2.5938999999999997,0.93107791,True,True
2922,Li8AsO3,mp-1102163,Pm-3m,2.242130950658971,0.2910306513020764,0.0,0.89425198,False,True
2923,Li12MnV3P4(CO7)4,mp-861267,Pm,2.6917500080708887,0.06829298562499897,2.7203999999999997,3.26636978,True,True
2924,Li4MnCo2O7,mp-1174776,P1,4.092017519730582,0.11099609178571246,0.23270000000000035,2.53761773,False,True
2925,Li5Mn2CoO8,mp-1314680,P-1,3.9328382654778697,0.05213486875000051,0.46609999999999996,2.59969231,False,True
2926,Li3MnPCO7,mp-756327,P-1,2.574674596448211,0.09867117115384705,3.6578999999999997,1.33310757,False,True
2927,Li7Mn2(CoO4)3,mp-1174495,C2/m,4.064097198054592,0.06584329958333424,1.1590000000000003,3.39265394,False,True
2928,Li4UC3O11,mp-935267,P-3c1,3.6763957035559045,0.035106590131580795,2.3419,1.03550012,False,True
2929,Li8HfO6,mp-752922,R-3,4.209322561079343,0.0027663176666665734,4.9506,0.58124076,False,True
2930,Li2Fe(PO4)2,mp-758232,P-1,2.9559517045385846,0.08317055879807533,0.0,0.85488472,False,True
2931,Li4V3P8O29,mp-765479,P1,2.513990774545235,0.0449183987878774,0.6863999999999999,0.47463986,False,True
2932,Li4MnCo2O7,mp-1174873,Cm,4.114085766389257,0.11117959142857003,0.007300000000000306,2.93214139,False,True
2933,Li3Cr2P5O18,mp-26684,P-1,2.955831448274489,0.09146839965773612,0.0,1.23187487,False,True
2934,Li2Fe(CO3)2,mp-757129,Fdd2,2.593064538079948,0.06392757227272661,3.5150000000000006,0.64515328,True,True
2935,Li3V(BO3)2,mp-772628,P2_1/c,2.7286980451581226,0.027036882083337765,2.1818,2.064131,False,True
2936,Li5Co2(SiO5)2,mp-849671,Pc,2.8379945752877327,0.13395075046052707,0.6486999999999999,0.82924858,False,True
2937,Li7Mn2(CoO4)3,mp-1174868,P-1,4.056990780289507,0.08281231791666688,0.5661999999999998,2.9804603,True,True
2938,Li4MnCo2O7,mp-1174473,P-1,4.100046460970165,0.09431125571428378,0.9377,2.37799882,False,True
2939,Li3V(PO4)2,mp-772643,Pca2_1,3.0931872015745414,0.07116992973211644,2.6842,3.43309418,True,True
2940,Li2VO2F,mp-1177808,Pm,3.341777452618849,0.10704554874999683,0.0,3.16086495,False,True
2941,Li9Mn2Co5O16,mp-1100697,P2/m,4.207963903067117,0.09226749218750019,0.1511,3.01513266,False,True
2942,Li5Mn2CoO8,mp-1392819,P1,3.944021780447309,1.3570193931250003,0.0,3.16970186,False,True
2943,Li2Cr(Si2O5)3,mp-775349,P-62c,2.548579888993473,0.03637098165508945,1.0966,0.89635638,False,True
2944,Li9Mn2Co5O16,mp-1175777,P-1,4.185694444359954,0.0966853887500001,0.4317000000000002,2.96304765,False,True
2945,Li4MnCo2O7,mp-1174432,P-1,4.122797999389225,0.06999295499999825,1.0985999999999998,3.38680355,False,True
2946,Li8WO6,mp-755616,R-3,4.073869815909136,0.021195023555557135,2.7062999999999997,2.08204703,False,True
2947,Li2Ni(PO3)5,mp-765458,Cc,2.5980943706279422,0.08381575877717662,0.1663,0.17001449,False,True
2948,Li6Ti2O7,mp-770456,C2,2.9681381286345445,0.019160892666667095,2.2426000000000004,1.60949103,False,True
2949,Li7Mn5O12,mp-1643980,P1,3.8827987009232006,0.02684364125000016,0.8113000000000001,2.78285647,False,True
2950,Li7Mn4CoO12,mp-1640232,P-1,3.949566533288343,0.061189930729165454,0.0,2.69788822,False,True
2951,Li6MnO6,mp-752842,R-3,2.559057967103192,0.098125989999998,0.0,0.17209962,False,True
2952,Li2FeBO4,mp-768289,Pc,3.140384280038545,0.031153064999999813,2.4480000000000004,1.34883637,False,True
2953,Li2CuPCO7,mp-25456,P2_1/m,2.8992780339856283,0.033904838975702845,0.0,1.10232291,False,True
2954,Li5Mn2CoO8,mp-1174329,C2,3.89259203192852,0.03964164125000025,1.2552999999999996,3.47547713,False,True
2955,Li2V(Si2O5)3,mp-775292,Cmce,2.597184737155169,0.027732305729168516,2.3511,1.66307379,False,True
2956,Li2CoP2O7,mp-1643968,P1,3.143469693304925,0.07788486784720217,2.9241,2.21803328,False,True
2957,Li4CoOF5,mp-1273164,P2/m,2.922586615459196,0.08184534681818256,0.0,-0.26938158,False,True
2958,Li4MnCo2O7,mp-1174482,P-1,4.064890055919492,0.12968397857142744,0.18159999999999998,2.69323106,False,True
2959,Li7Mn5O12,mp-1651001,P-1,3.866867643071012,0.029956274999999977,0.7225999999999999,2.88916868,False,True
2960,Li9V3P8O29,mp-759741,P1,2.667630370411244,0.025602607636025176,0.937,1.73765514,False,True
2961,Li4Ni2OF7,mp-753213,Cm,3.2572529745045493,0.07019836526785728,0.31100000000000005,-0.39787289,False,True
2962,Li5Ni2O2F5,mp-765310,I4/mmm,3.7398356791551612,0.02514879321428598,2.1843000000000004,3.00725293,False,True
2963,Li2Mn(Si2O5)2,mp-849390,P-1,2.6326863850312434,0.053809295882352615,3.0364,2.49804109,True,True
2964,Li2Fe(SiO3)2,mp-763619,P2_1,2.889223369278685,0.052669625227273364,3.3924999999999996,1.87813998,False,True
2965,Li5Mn2CoO8,mp-1174420,Cm,3.8242353564442926,0.13191092875,0.0,2.65823338,False,True
2966,Li3Co2O5,mp-1174158,C2/m,4.066366290638545,0.1015489590000005,0.031700000000000284,2.32898228,False,True
2967,Li7Co5O12,mp-1174313,P-1,4.230159056265741,0.047629969583330656,1.0682,3.08175588,False,True
2968,Li2Cu(PO3)3,mp-849327,P2_12_12_1,3.0465030028920053,0.08808545275000679,1.1791999999999998,5.05153506,False,True
2969,Li9Mn2Co5O16,mp-1175622,P1,4.234761907512416,0.062476026250000594,0.0,3.56092739,False,True
2970,Li6MnV3(PO4)6,mp-887341,P1,2.850363916530618,0.06257898576560983,0.5601999999999998,2.24927877,False,True
2971,Li7Mn4CoO12,mp-1175251,P1,3.911872374268177,0.08940722968749881,0.0,2.68496759,False,True
2972,Li4Mn2(PO4)3,mp-779625,P2_1/c,2.930610196374659,0.030423804404721366,0.0,2.00064318,False,True
2973,Li9Mn2Co5O16,mp-1175707,P-1,4.1801786846217315,0.07652920250000061,1.1443000000000003,2.29806234,False,True
2974,Li6Ti2O7,mp-1176936,P2_1/c,2.9580778897358346,0.017778954333333985,2.3726000000000003,3.87566264,True,True
2975,Li2VO2F,mp-1301550,P1,3.5576942085532566,0.06546633916666256,1.0077000000000003,4.40413556,False,True
2976,Li7Mn2(CoO4)3,mp-1175095,P1,4.048487478942431,0.10078108291666776,0.0,2.27462297,False,True
2977,Li4(MoO4)3,mp-1211266,Pnma,3.4133772375598066,0.11323300171052608,0.0,-0.4557591,False,True
2978,Li4Si2NiO7,mp-1306908,C2,2.9160037603076763,0.032662164107144065,3.5697,5.08724972,False,True
2979,Li9Al(CoO4)2,mp-770726,Pnma,2.887364705137179,0.059655259375000824,1.9766000000000001,1.84251522,False,True
2980,Li3AlFeO4,mp-772439,I4_1/a,2.8486260126175607,0.020364191805555265,2.4242,1.95285234,False,True
2981,Li6V3P8O29,mp-1176918,P1,2.563438259014616,0.01946501158513758,1.1982,0.68252457,False,True
2982,Li7Mn2(CoO4)3,mp-1175090,Cm,4.075646287503503,0.10659244583333294,0.0,2.62994491,False,True
2983,Li10Mn2V3Cr3O16,mp-760787,P1,3.9154026712505656,0.057045590245095035,1.8132999999999995,3.62281651,False,True
2984,Li9Mn2Co5O16,mp-1175868,P-1,4.1976698520938,0.09799473156250027,0.08430000000000026,2.77586305,True,True
2985,Li3Ti2(PO4)3,mp-25935,P2_1/c,2.897691301416907,0.062344617358328414,0.07779999999999987,4.64313218,False,True
2986,Li4V3P8O29,mp-851256,P1,2.5306655725481173,0.04785905787878608,0.48729999999999996,0.57963751,False,True
2987,Li4MnCo2O7,mp-1174541,P-1,4.064372736453647,0.1346969474999984,0.18230000000000013,2.59360511,False,True
2988,Li3Sb2(PO4)3,mp-759868,C2/m,3.72654819623645,0.09662317250001262,2.3138,3.76915625,False,True
2989,Li2CoSiO4,mp-760516,Pnma,3.1786780526994187,0.014630896249993697,2.3926999999999996,2.11300242,False,True
2990,Li5Mn2CoO8,mp-1174134,P2/m,3.9279372452526067,0.04846314375000027,1.3885,2.53891908,False,True
2991,Li6Mn3V(PO4)6,mp-1177014,P2_1,2.9546509979489475,0.012876130000007535,0.0,2.72630331,False,True
2992,Li5NiHO4,mp-1177168,Pnma,2.4946415534853115,0.08463594147727171,2.5772999999999997,0.76747697,True,True
2993,Li6Mn2B4SO16,mp-831077,Fd-3,2.7484049590073343,0.07715664025861901,1.6433999999999997,0.877256,False,True
2994,Li6TiCr3(PO4)6,mp-758137,P1,2.9706934221472716,0.06701926606249309,0.0,3.63912546,False,True
2995,Li9Mn2Co5O16,mp-1175652,P-1,4.193241306963288,0.11259487343750063,0.0,2.81063887,False,True
2996,Li7Mn2(CoO4)3,mp-1174933,P1,4.10672308175162,0.07513094958333344,1.1696,3.49599588,False,True
2997,Li2TiO3,mp-729930,P-1,3.3179297894226436,1.2459098489583402,0.0,4.46870378,False,True
2998,Li7Mn4CoO12,mp-1651188,P1,4.001798261138309,0.023867918645831487,0.7915000000000001,2.97503653,False,True
2999,Li8FeO5F,mp-755400,P1,2.576539700538296,0.051991217999999506,2.1761999999999997,0.84562934,False,True
3000,Li3Fe2(CO4)2,mp-765004,Pc,2.4282476471479693,0.09643185783333585,2.0545999999999998,0.39005858,False,True
3001,Li7Mn2(CoO4)3,mp-1174938,P1,4.148677614695986,0.09873543249999983,0.31679999999999975,3.19670378,False,True
3002,Li9Co7O16,mp-1175500,P-1,4.249583676349435,0.08524242218750011,0.44730000000000025,2.73677527,False,True
3003,K2Li2CoO4,mp-757055,P1,2.753895241338887,0.03844091509258618,0.0,1.16690123,False,True
3004,Li5Fe2P2(CO7)2,mp-768689,Pc,2.749188048746651,0.03876985475000616,0.8167,3.02269325,True,True
3005,Li7V4O11F,mp-759231,P1,3.4690125125598295,0.07686015570652582,0.6661000000000001,3.50334162,False,True
3006,Li3MnV(PO4)3,mp-761261,P1,2.958514784337267,0.0628767453124972,0.6013999999999999,2.05749706,False,True
3007,Li4MnCo2O7,mp-1174628,P1,4.127592324039096,0.0870064003571418,0.9634999999999998,3.28679445,True,True
3008,Li5AuO4,mp-1222442,C2/m,4.870792345108567,0.0,1.8762,0.51789871,False,True
3009,Li9Mn2Co5O16,mp-1100658,Cm,4.090451890582896,0.14443412437500047,0.0,2.62761395,False,True
3010,Li4AlNi3O8,mp-1222534,R-3m,4.318811608511611,0.01736910953125026,0.0,3.70011434,False,True
3011,Li9Mn2Co5O16,mp-1100618,Cm,4.13139474489038,0.12213364375000069,0.0,2.66298855,False,True
3012,Li2IrO3,mp-532085,C2,7.439700260027543,0.0,0.0,4.09005955,False,True
3013,Li9Mn2Co5O16,mp-1175661,P1,4.1613462118430835,0.09997296125000066,0.0,2.38569102,False,True
3014,Li2CuP2O7,mp-758486,P-1,3.1509041849693897,0.0889415341666604,0.4907999999999997,2.10477982,False,True
3015,Li2MnOF2,mp-753929,Cmcm,3.0087087376067316,0.08345865999999891,1.5452,1.79274111,False,True
3016,Li3CuPCO7,mp-25460,P2_1/m,2.9516348155588763,0.04006742307692868,0.1737000000000002,2.20052791,False,True
3017,Li3MnV(PO4)3,mp-777834,C2,2.9509598059418285,0.06453542018749747,0.0,2.41254912,False,True
3018,Li4FeO3F,mp-807564,P1,2.6086337835771376,3.139585634861107,0.0,2.05767979,False,True
3019,Li4MnCo2O7,mp-1174753,P1,4.09668366291881,0.2483003678571416,0.0,3.05960123,False,True
3020,Li5Mn3O8,mp-1174652,C2/m,3.5242679985236554,0.2263556178124997,0.0,1.87427599,False,True
3021,Li9V3P8O29,mp-761049,P1,2.626687670014616,0.017266522125821915,1.5394,1.71155232,False,True
3022,Li9Mn2Co5O16,mp-1176002,P1,4.180652456330652,0.09771809843750034,0.4161999999999999,2.42657708,False,True
3023,Li2Si4NiO10,mp-770701,P-1,2.7652062135845488,0.06370913602940931,3.4654,5.39238375,False,True
3024,Li3MnCoO5,mp-1372639,P-1,3.993198089767479,1.6055706779999896,0.0,3.33993818,False,True
3025,Li3MnV(PO4)3,mp-1177573,P1,2.8742013395904156,0.05305480893749692,0.4384999999999999,1.79812075,False,True
3026,Li7Mn2(CoO4)3,mp-1175166,Cm,4.059609546959524,0.2014421754166671,0.0,3.20795704,False,True
3027,Li4MnCo2O7,mp-1174318,Cm,4.083752617209869,0.12190930892856944,0.0,2.64608983,False,True
3028,Li6MnV3(PO4)6,mp-761204,P1,3.1512751751006522,0.05318209001560881,0.4121999999999999,3.09236089,True,True
3029,Li6Cr2O7,mp-770694,P2_1/c,3.2288616073126604,0.05003250666666581,0.45750000000000024,1.78323636,False,True
3030,Li2CoOF3,mp-850284,C2,3.2505376624131435,0.11971576785714433,1.3740999999999999,-0.16891356,False,True
3031,Li7Mn2(CoO4)3,mp-1174992,P1,4.088311699349529,0.09062180833333411,0.0,2.94339186,False,True
3032,Li7Mn4CoO12,mp-1666476,P-1,3.9706878177643143,0.0317703067708317,0.03730000000000011,3.75247495,True,True
3033,Li9Mn2Co5O16,mp-1176144,P1,4.094854142859388,0.12447555500000007,0.0,2.61012734,False,True
3034,Li2VO3F,mp-761092,Cc,3.1007590323659375,0.09070790964285713,2.213,0.6067916,False,True
3035,Li2Mn(SO4)2,mp-758969,Pbca,2.7619698050537704,0.013533118653845655,4.5945,1.55893926,True,True
3036,Li4V2Si(PO6)2,mp-770190,Cc,2.896357502546422,0.08166644543651369,1.9445999999999994,2.53455327,False,True
3037,Li9Mn2Co5O16,mp-1175978,P1,4.238369213479709,0.08407085843750028,0.399,2.81164569,False,True
3038,Li3Eu3(TeO6)2,mp-1211152,Ia-3d,5.957672535208488,0.0,0.08360000000000012,2.68642302,False,True
3039,Li4V3P8O29,mp-1177229,P1,2.520709029074588,0.04668011708333264,0.5708,0.35920108,False,True
3040,Li3MnCoO5,mp-1174046,C2,4.020456475182618,0.05647213899998871,1.0015,2.32125585,False,True
3041,Li3Fe2(PO4)3,mp-759282,P2_12_12,2.972478463504189,0.004025516250005801,2.3800999999999997,1.17546676,False,True
3042,Li4V3(OF2)4,mp-758474,P1,3.174797451724588,0.04394212710526091,1.384,0.62350314,False,True
3043,Li3MnCoO5,mp-1174030,P-1,3.898018677642246,0.13799570249998983,0.07430000000000003,2.50833336,False,True
3044,Li5Cr3NiO8,mp-759272,P4_332,4.104991730549645,0.049870436470587975,2.7783,3.07221991,True,True
3045,Li4Co3O7,mp-1174291,C2/m,4.345676576164625,0.05950370749999756,0.0,2.88191439,False,True
3046,Li9Mn2Co5O16,mp-1176033,P1,4.151612917359816,0.10594986812500018,0.14800000000000013,2.77239518,False,True
3047,Li9Mn2Co5O16,mp-1176324,C2/m,4.179960213391221,0.12998634468750048,0.0,2.43150983,False,True
3048,NaLi5Mn2P2(CO7)2,mp-772419,P1,2.7675583593416024,0.05624439051281449,3.5457,2.18771176,False,True
3049,Li9Mn2Co5O16,mp-1100678,Cm,4.171939134884035,0.08063416312500049,0.9384000000000001,2.31116112,False,True
3050,Li8ZrO6,mp-755225,R-3,3.051995079369946,0.0006577909999974096,4.5525,0.51468671,False,True
3051,Li95Mn16O64,mp-1185524,Pmm2,2.497744116133949,0.007698193142859466,0.0,3.22862578,False,True
3052,Li9Mn2Co5O16,mp-1175731,P-1,4.143577603897886,0.10818422937500038,0.8279999999999998,3.02124311,False,True
3053,Li6MnV3(PO4)6,mp-1177018,P1,2.89049595107288,0.05705573301560918,0.2673000000000001,2.22983097,True,True
3054,Li2OsO6,mp-726692,C2/c,4.338713265185179,0.1784887067446359,0.0,-0.56288342,False,True
3055,Li9Mn2Co5O16,mp-1175454,P-1,4.2269772635064635,0.07889016562500029,0.49659999999999993,2.75709609,False,True
3056,Li3V2(PO4)3,mp-26903,C2/c,3.1349229879046723,0.042418175000027425,1.8138,3.14191247,False,True
3057,Li2VO2F,mp-763347,Cmcm,3.4525011267825794,0.06358649708332909,0.3455999999999997,3.28747661,False,True
3058,Li4MnCo2O7,mp-1174591,P1,4.129032973483896,0.08854411357142666,0.8262999999999998,2.44238556,False,True
3059,Li6Mn3Sb(PO4)6,mp-1177012,P1,3.0691579146185863,0.0952264444230817,2.0149,1.8769597,False,True
3060,Li3Fe(OF)2,mp-755329,P2/c,3.3165833241423033,0.06582385812499947,2.1982999999999997,1.30089231,False,True
3061,Li9Mn2Co5O16,mp-1100688,Cm,4.173091817520343,0.07574262812500088,1.2765999999999997,2.19815533,False,True
3062,Li2V(Si2O5)3,mp-775339,Imma,2.678377172291075,0.059031230000000434,1.7923,1.7579421,True,True
3063,Li6V3P8O29,mp-772963,P1,2.59889100725118,0.021502794085138,1.0267,0.98179962,False,True
3064,Li2H32Pt(C6O)2,mp-1198280,Pbca,1.3825669286785016,0.15883787599914623,2.7425,-0.06039334,True,True
3065,K2Li14Zr3O14,mp-17208,Immm,3.038600393090955,0.0,4.2801,0.40806477,False,True
3066,Li9Mn2Co5O16,mp-1176215,P1,4.169880379711633,0.10113613156250079,0.18290000000000006,2.6843001,False,True
3067,Li3MnCoO5,mp-1174066,Cm,3.9506154315911686,0.09772625949999014,0.16920000000000002,2.81177487,False,True
3068,Li8CoO5F,mp-1176847,P1,2.4039656316629077,0.029465703333327653,1.7086000000000001,1.9909796,True,True
3069,Li2V(CO3)2,mp-766441,P1,2.3502808971683256,0.12623709508522918,2.6052999999999997,1.90283123,False,True
3070,Li7Mn5O12,mp-1648875,P-1,3.8837103025995376,0.028836967083333498,0.7679,2.7856058,False,True
3071,Li8Fe(O2F)2,mp-1176841,P-1,2.5236043301271094,0.08245884866666664,3.4413,0.98203762,False,True
3072,Li2VBO4,mp-1177802,C222_1,2.948231115696599,0.10243678906249887,2.0753,4.60812552,False,True
3073,Li5Mn(CoO4)2,mp-1174032,Pm,3.929966111350977,0.08122494593749696,0.2892000000000001,2.32410589,False,True
3074,Li5Mn3O8,mp-1174761,P-1,3.7879634613486104,0.05795252062499934,0.8939000000000004,2.54780557,False,True
3075,Li6Co5(P2O7)4,mp-705429,P-1,3.2036477017169336,0.04164301072695764,2.3657000000000004,2.03674884,False,True
3076,Li7Mn2(CoO4)3,mp-1175092,Cm,3.8676505897366353,0.22154274541666652,0.0,2.06617111,False,True
3077,Li3Fe(PO4)2,mp-758982,R3,2.8577907821696127,0.06716947065475853,2.5097,1.18192792,True,True
3078,Na3Li3Fe2P2(CO7)2,mp-772851,P1,2.854804081519355,0.03011745423076917,3.7383000000000006,1.88842506,False,True
3079,Li10Cr3Fe3(NiO8)2,mp-1178099,P1,4.157267940805415,0.06461314249999717,1.7259000000000002,4.77043568,True,True
3080,Li6Co2OF11,mp-1345667,P1,3.151387263645343,0.5885851258124983,0.205,-0.32902607,False,True
3081,Li3Co2O5,mp-1174119,P-1,4.068330290022214,0.10117539200000092,0.46850000000000014,2.18122738,False,True
3082,Li2Mn(PO3)4,mp-31964,C2/c,2.594044676030295,0.028802497193037624,3.6924,1.42154074,False,True
3083,Li2NiO2F,mp-799788,P1,3.961232721545173,1.396668730555552,0.0,2.27058847,False,True
3084,Li7V3P8O29,mp-1176861,P1,2.591681559118513,0.013946096307622113,0.9248000000000003,1.272918,True,True
3085,Li4FeSi2O7,mp-753713,C2,2.829477865151716,0.018937133214274482,3.4419999999999997,2.22898205,False,True
3086,Li7Fe4P9O32,mp-27081,P-42_1c,2.866921227932506,0.04233558096154777,2.1625,1.10207641,True,True
3087,Li7Mn2(CoO4)3,mp-1174892,P2/m,4.0811071308680535,0.127625367916667,0.0,2.59498921,False,True
3088,Li4Co3O7,mp-1174353,C2/m,4.185579029752206,0.1387875017857123,0.0,2.45557867,False,True
3089,Li7Mn2(CoO4)3,mp-1175136,Pm,4.05499242158581,0.10796755208333408,0.0,2.97943206,False,True
3090,Li2FePCO7,mp-768471,P-1,2.758883232210936,0.011853184479185153,2.3411999999999997,0.97785825,False,True
3091,Li6V3P8O29,mp-760160,P1,2.590484065395399,0.03406498278079084,1.4484,0.74752864,True,True
3092,Li2Ni(PO4)2,mp-26692,Cm,3.125858246785251,0.1189622583012806,0.0,1.7696233,False,True