,material_id,formula_pretty,nsites,crystal_system,formation_energy_per_atom,is_stable
677,mp-771207,Li4FeNi5O12,22,C2,-1.331145341969698,False
678,mp-777759,Li4Nb2Cr3Ni3O16,28,Cm,-2.189790229761903,False
679,mp-779200,Li4Nb2Cr3Ni3O16,28,P1,-2.198017476190475,False
680,mp-752655,Li4Nb2Fe3Ni3O16,28,Cm,-1.97839727690476,False
681,mp-1177321,Li4Nb2V3Ni3O16,28,P1,-2.341217229404762,False
682,mp-776390,Li4Nb2V3Ni3O16,28,Cm,-2.350638281904762,False
683,mp-1177319,Li4Nb3Cr3(NiO8)2,28,Cm,-2.396432973690476,False
684,mp-764250,Li4Nb3Fe2Ni3O16,28,P1,-2.1607495104761907,False
685,mp-1177484,Li4Nb3V2Ni3O16,28,Cm,-2.353473856547617,False
686,mp-770999,Li4Nb3V3(NiO8)2,28,Cm,-2.449206727619049,False
687,mp-770552,Li4Ti2Cr3Ni3O16,28,Cm,-2.166667073571428,False
688,mp-768714,Li4Ti2V3Ni3O16,28,P1,-2.369445894285714,False
689,mp-782652,Li4Ti3Cr3(NiO8)2,28,Cm,-2.4498560061904766,False
690,mp-759701,Li4Ti3Fe2Ni3O16,28,Cm,-2.154862572261905,False
691,mp-780404,Li4Ti3Fe3(NiO8)2,28,Cm,-2.21046684047619,False
692,mp-776519,Li4Ti3V2Ni3O16,28,Cm,-2.473356312976191,False
693,mp-1177257,Li4Ti3V3(NiO8)2,28,Cm,-2.592095225119048,False
694,mp-1177433,Li4Ti4Cr4NiO18,62,Pbam,-2.6163553777956987,False
695,mp-767907,Li4Ti4V4NiO18,62,Pbam,-2.7357783850537625,False
696,mp-1177166,Li4V5Ni3O16,28,P1,-2.153631011190476,False
697,mp-756855,Li5Cr2Ni3O10,20,P-1,-1.8673132400833325,False
698,mp-774237,Li5Cr2Ni5O12,24,C2,-1.7465753436111118,False
699,mp-759272,Li5Cr3NiO8,68,P4_332,-2.1554239659803933,False
700,mp-759984,Li5Cr3NiO8,34,Cmc2_1,-2.1461973748039225,False
701,mp-753971,Li5Fe(Ni2O5)2,20,R-3m,-1.5729959845833335,False
702,mp-755824,Li5Fe2Ni3O10,20,P-1,-1.6593324958333326,False
703,mp-771319,Li5Fe2Ni5O12,24,C2,-1.581595096111111,False
704,mp-755786,Li5Fe3(NiO5)2,20,P-1,-1.7211697853333334,False
705,mp-771236,Li5Fe5(NiO6)2,24,C2,-1.7941757440277766,False
706,mp-759765,Li5FeNi3O8,34,Cc,-1.609163595392156,False
707,mp-1282931,Li5V2Ni3O10,40,P1,-2.046535193333334,False
708,mp-781051,Li5V2Ni3O10,40,P-1,-2.0480661378333336,False
709,mp-756881,Li5V2Ni5O12,24,C2,-1.9000038494444442,False
710,mp-755845,Li5V3(NiO5)2,20,P-1,-2.1566305965833323,False
711,mp-756056,Li5V5(NiO6)2,24,C2,-2.2402149186111107,False
712,mp-753243,Li6Fe5NiO12,24,C2,-1.7821492849999991,False
713,mp-765833,Li6Fe5NiO12,24,C2/m,-1.8302520004166662,False
714,mp-758623,Li6FeNi9O20,36,P-1,-1.2805870786111113,False
715,mp-760174,Li7Fe4NiO12,24,P1,-1.742173177638889,False
716,mp-769574,Li7V6Ni5O24,42,P-1,-2.122546557460316,False
717,mp-759370,Li8Fe3Ni7O20,38,P2/m,-1.514021044122806,False
718,mp-759197,Li8FeNi9O20,38,P-1,-1.4168564467543856,False
719,mp-1177063,Li9Cr12Ni7O48,76,P1,-1.717493184342105,False
720,mp-1565491,LiV2NiO6,20,C2,-2.1736598458333325,False
721,mp-771823,LiVNiO4,28,Pnma,-2.086231565476191,False
722,mp-760848,Li10Fe3Co7O20,40,P2/m,-1.7897905415833335,False
723,mp-763869,Li10Fe5Co3O16,34,P1,-1.784542713921569,False
724,mp-770651,Li10Fe9CoO20,40,P2/m,-1.9177740593333332,False
725,mp-761094,Li10FeCo9O20,40,P-1,-1.7078314398333334,False
726,mp-764262,Li10FeCo9O20,40,P1,-1.7198294278333335,False
727,mp-778830,Li10Ti2Fe3Co3O16,34,P1,-2.1130384673529403,False
728,mp-759872,Li11Cr3Fe3O16,33,Cm,-2.036456233535352,False
729,mp-765203,Li11Cr3Fe3O16,33,P1,-2.0343936362626254,False
730,mp-782631,Li2Cr(FeO3)2,33,P-1,-1.914737641363636,False
731,mp-782636,Li2Cr2FeO6,33,P-1,-2.0836652522727266,False
732,mp-775129,Li2Cr3(FeO6)2,76,Pbcn,-1.8026546041666658,False
733,mp-775335,Li2Cr3FeO8,28,Cc,-2.1066178444047616,False
734,mp-777653,Li2Cr3FeO8,56,P1,-2.1149508613690466,False
735,mp-754348,Li2CrFeO4,24,P-1,-2.1748756308333337,False
736,mp-754386,Li2CrFeO4,24,P-1,-2.16847762375,False
737,mp-755848,Li2CrFeO4,24,P1,-2.161304564166667,False
738,mp-756242,Li2CrFeO4,24,P-1,-2.1750259399999994,True
739,mp-863081,Li2CrFeO4,24,C2,-2.163576104999999,False
740,mp-1571236,Li2Fe(CoO3)2,22,C2,-1.5963985787878776,False
741,mp-1639830,Li2Fe(CoO3)2,22,Aea2,-1.5673522937878785,False
742,mp-1640067,Li2Fe(CoO3)2,22,C2,-1.6125310860606057,False
743,mp-1646935,Li2Fe(CoO3)2,22,P1,-1.574297061060605,False
744,mp-757742,Li2Fe(CoO3)2,22,Cmce,-1.5864963778787868,False
745,mp-752595,Li2Fe3(CoO4)3,20,P-1,-1.446556186333332,False
746,mp-757626,Li2Fe3Co7O20,32,P2/m,-1.2797322261458328,False
747,mp-756292,Li2Fe3CoO8,28,P6_3mc,-1.5914159679761894,False
748,mp-762142,Li2Fe3CoO8,56,P4_32_12,-1.6428541926190465,False
749,mp-878729,Li2Fe3CoO8,56,P4_132,-1.6305830945833324,False
750,mp-1177976,Li2FeCo3O8,56,C2,-1.5310272770833333,False
751,mp-1284679,Li2FeCo3O8,28,C2/c,-1.5595668104761902,False
752,mp-1299471,Li2FeCo3O8,28,P-1,-1.5171116640476185,False
753,mp-1304790,Li2FeCo3O8,28,C2/c,-1.5421833547619042,False
754,mp-757856,Li2FeCo3O8,28,P6_3mc,-1.4785850144047612,False
755,mp-758079,Li2FeCo3O8,56,P4_332,-1.5310525386904754,False
756,mp-761763,Li2FeCo3O8,28,Cc,-1.5212518565476185,False
757,mp-761944,Li2FeCo3O8,56,P1,-1.5607463819047618,False
758,mp-861570,Li2FeCo3O8,28,R-3m,-1.5599363315476182,False
759,mp-759051,Li2FeCo9O20,32,P-1,-1.259377936770833,False
760,mp-771093,Li3Cr10Fe5O24,42,Cm,-2.1678539407142847,False
761,mp-1304638,Li3Cr3FeO8,30,P2/m,-2.1728048866666656,False
762,mp-768696,Li3Cr3FeO8,30,P-1,-2.150079308666666,False
763,mp-754939,Li3CrFe3O8,30,P-1,-1.9311701686666671,False
764,mp-763933,Li3CrFe3O8,30,P6_3mc,-1.9158256530000008,False
765,mp-759196,Li3Fe2Co3O10,36,Pm,-1.5914281933333332,False
766,mp-1303115,Li3Fe2CoO6,24,C2/m,-1.8491471904166659,False
767,mp-850397,Li4Cr2Fe5O12,46,P2_1,-1.9518027447101434,False
768,mp-755679,Li4Cr3(FeO4)3,22,P-1,-2.0105040142424246,False
769,mp-772464,Li4Cr3Fe5O16,28,P1,-1.8918263597619043,False
770,mp-768687,Li4Cr3FeO8,32,P-1,-2.273702904895832,False
771,mp-768703,Li4Cr3FeO8,32,P-1,-2.2715993833333323,False
772,mp-768704,Li4Cr3FeO8,32,P-1,-2.271539508645832,False
773,mp-768805,Li4Cr3FeO8,32,P-1,-2.272376624583332,False
774,mp-768894,Li4Cr3FeO8,32,P1,-2.2667644205208326,False
775,mp-770328,Li4Cr3FeO8,32,P-1,-2.284072011145832,False
776,mp-773204,Li4Cr5Fe3O16,28,Cm,-2.027782313333333,False
777,mp-768692,Li4CrFe3O8,32,P-1,-2.0548970511458338,False
778,mp-768701,Li4CrFe3O8,32,P-1,-2.0551027433333333,False
779,mp-768874,Li4CrFe3O8,32,P-1,-2.0548518692708333,False
780,mp-771065,Li4CrFe3O8,32,P-1,-2.0545079917708335,False
781,mp-771082,Li4CrFe3O8,32,P-1,-2.0549984323958332,False
782,mp-754017,Li4Fe2Co3Cu3O16,28,Cm,-1.365616856904762,False
783,mp-758365,Li4Fe3Co2Cu3O16,28,Cm,-1.3634960029761902,False
784,mp-776391,Li4Fe3Co3(CuO8)2,28,Cm,-1.4357552851190474,False
785,mp-753106,Li4Fe3Co5O16,28,P2/m,-1.522363018333333,False
786,mp-781613,Li4Fe3Co5O16,28,Cm,-1.5068038694047619,False
787,mp-759773,Li4Fe3Co7O20,34,P2/m,-1.427043526568627,False
788,mp-1291817,Li4Fe3CoO8,32,C2/c,-1.8632343580208337,False
789,mp-1296443,Li4Fe3CoO8,32,C2/m,-1.8664534345833337,False
790,mp-775227,Li4Fe5(CoO6)2,46,P2_1,-1.7088404351449282,False
791,mp-772179,Li4Fe5Co3O16,28,Cm,-1.5877687058333325,False
792,mp-756543,Li4FeCo5O12,22,C2/m,-1.562582225151514,False
793,mp-759547,Li4FeCo9O20,34,P1,-1.4292348853921566,False
794,mp-755224,Li4Nb2Cr3Fe3O16,28,Cm,-2.372092439047619,False
795,mp-757731,Li4Nb2Fe3Co3O16,28,Cm,-2.0613210883333326,False
796,mp-765948,Li4Nb3Cr2Fe3O16,28,P1,-2.384178036190476,False
797,mp-770520,Li4Ti2Cr3Fe3O16,28,Cm,-2.320461768928571,False
798,mp-759038,Li4Ti2Fe3Co3O16,28,Cm,-2.0288594810714287,False
799,mp-775160,Li4Ti2Fe4(CoO6)3,62,Pbam,-1.9480483964516129,False
800,mp-771902,Li4Ti3Cr2Fe3O16,28,Cm,-2.4875051619047617,False
801,mp-776639,Li4Ti3Cr3(FeO8)2,28,P1,-2.573430618333334,False
802,mp-1177269,Li4Ti3Fe2Co3O16,28,P1,-2.250163199047619,False
803,mp-758015,Li4Ti3Fe2Co3O16,28,Cm,-2.268653239047619,False
804,mp-769457,Li4Ti4Cr(Fe2O9)2,62,Pbam,-2.493699516827958,False
805,mp-774870,Li4TiFe4(Co2O9)2,62,Pmc2_1,-1.7093259150537639,False
806,mp-765750,Li5Cr2Fe3O10,20,P-1,-2.0890093350833325,False
807,mp-755090,Li5Cr2Fe5O12,24,C2,-1.9747925061111111,False
808,mp-759913,Li5Cr3FeO8,68,P1,-2.183615987156862,False
809,mp-755858,Li5Fe2Co3O10,20,P-1,-1.7257939700833327,False
810,mp-769566,Li5Fe2Co3O10,40,Pm,-1.8032090968333327,False
811,mp-753569,Li5Fe2Co5O12,24,C2,-1.635115895277778,False
812,mp-752962,Li5Fe3(CoO5)2,20,P-1,-1.7781142175833338,False
813,mp-850359,Li5Fe5(CoO6)2,24,C2,-1.7762608156944448,False
814,mp-755973,Li6Fe3Co3O16,28,Cm,-1.5130026132142862,False
815,mp-772702,Li6Fe3Co3O16,28,P1,-1.512701194642857,False
816,mp-759074,Li6Fe3Co5O16,30,Pm,-1.6482073579999992,False
817,mp-759810,Li6Fe3Co7O20,36,P2/m,-1.5934056430555552,False
818,mp-763920,Li6Fe5CoO12,24,C2/m,-1.8636515191666672,False
819,mp-765392,Li6Fe9CoO20,36,Pm,-1.683836372499999,False
820,mp-759050,Li6FeCo9O20,36,P-1,-1.5060416705555555,False
821,mp-767681,Li8Cr(FeO4)3,24,P2,-1.8915789269444439,False
822,mp-765504,Li8Fe3Co5O16,32,P2/m,-1.8092616264583326,False
823,mp-764985,Li8Fe3Co7O20,38,Pm,-1.694806605438596,False
824,mp-759442,Li8Fe9CoO20,38,P2/m,-1.8147835983333336,False
825,mp-752780,Li8FeCo3O8,20,P1,-1.7098756943333329,False
826,mp-764865,Li8FeCo9O20,38,P-1,-1.648527885701755,False
827,mp-1176819,Li9Cr12Fe7O48,76,P1,-1.8036943659210518,False
828,mp-754281,LiCrFeO4,28,P4_322,-1.948730139047618,False
829,mp-757050,LiFeCoO4,28,P4_322,-1.5266715686904766,False
830,mp-766883,Li4Ti4Mn4VO18,62,Pbam,-2.657494977851316,False
831,mp-1222736,Li5Co(Ni2O5)2,20,C2/m,-1.4856673525833322,False
832,mp-1320203,Li5Co2Ni3O10,40,P1,-1.5888488698333334,False
833,mp-755607,Li5Co2Ni3O10,40,P-1,-1.600919092833334,False
834,mp-769553,Li5Co2Ni3O10,40,P2/m,-1.5791743753333336,False
835,mp-765625,Li5Co2Ni5O12,24,C2,-1.5001506556944442,False
836,mp-755076,Li5Co3(NiO5)2,40,P-1,-1.5593282040833323,False
837,mp-760155,Li5Co4(NiO6)2,69,P1,-1.5185050681159422,False
838,mp-1120825,Li5CoNi9O20,35,P1,-1.1945148687619054,False
839,mp-775411,Li5Mn2Fe17O32,56,P1,-1.7575779118308685,False
840,mp-1290410,Li5Mn2Fe3O10,40,P1,-1.9723996738764356,False
841,mp-1302313,Li5Mn2Fe3O10,40,P1,-1.9857880851264356,False
842,mp-1303877,Li5Mn2Fe3O10,40,P1,-1.9863220576264353,False
843,mp-1304518,Li5Mn2Fe3O10,40,P1,-1.9887706871264357,False
844,mp-755514,Li5Mn2Fe3O10,40,P-1,-2.0019091858764355,False
845,mp-770934,Li5Mn2Fe5O12,24,C2,-1.9020662188553648,False
846,mp-754473,Li5Mn2V3O10,40,P-1,-2.320868929376438,False
847,mp-774681,Li5Mn2V5O12,24,C2,-2.3443508763553624,False
848,mp-757564,Li5Mn3(FeO5)2,20,P-1,-2.044139042272988,False
849,mp-756863,Li5Mn3V2O10,40,P-1,-2.2948803657729897,False
850,mp-753750,Li5Mn5(FeO6)2,24,C2,-2.024042104846744,False
851,mp-756887,Li5Mn5V2O12,24,C2,-2.2146595644300766,False
852,mp-775954,Li5Mn7Fe3O20,70,C2/m,-1.928642257919541,False
853,mp-779755,Li5Mn7Fe3O20,70,P1,-1.987466389919541,False
854,mp-771896,Li5Mn8Fe11O32,56,Cm,-1.8586168889306234,False
855,mp-764142,Li5MnV3O8,68,P4_332,-2.296890381005747,False
856,mp-760934,Li6Co3Ni5O16,30,Cm,-1.4055492413333326,False
857,mp-759805,Li6Co5Ni3O16,30,Cm,-1.4690307383333325,False
858,mp-867666,Li6CoNi5O12,24,P-1,-1.5028576562499996,False
859,mp-775263,Li6CoNi9O20,36,C2/m,-1.2678843216666675,False
860,mp-1305328,Li6Mn(FeO3)2,30,P1,-1.8893668331954019,False
861,mp-1306251,Li6Mn(FeO3)2,30,P-1,-1.8902529415287348,False
862,mp-1310460,Li6Mn(FeO3)2,30,P-1,-1.8880113801954015,False
863,mp-760214,Li6Mn(FeO3)2,30,C2/m,-1.8941351745287363,False
864,mp-765561,Li6Mn5FeO12,24,C2/m,-2.0395972529022983,False
865,mp-761167,Li8Co3NiO8,20,P1,-1.6753041053333326,False
866,mp-1176867,Li8CoNi9O20,76,Pm,-1.3968168370175444,False
867,mp-850772,Li8CoNi9O20,76,Pm,-1.3961174037280706,False
868,mp-766973,Li8Mn(FeO4)3,24,P2,-1.878652520608237,False
869,mp-771651,Li8Mn13Fe3O32,56,P-1,-2.018988343388751,False
870,mp-772658,Li9Mn7V12O48,76,P1,-2.2040897621778575,False
871,mp-831248,Li9Mn7V12O48,76,P1,-2.2114265295462787,False
872,mp-1282499,LiCo2NiO6,20,P1,-1.2291416673333324,False
873,mp-774305,LiCo2NiO6,20,P-1,-1.2635676863333338,False
874,mp-1275497,LiCo3NiO8,26,C2/c,-1.2211800925641005,False
875,mp-1301164,LiCo3NiO8,26,C2/m,-1.2173984387179468,False
876,mp-1310345,LiCo3NiO8,26,P-1,-1.2166907002564096,False
877,mp-1318786,LiCo3NiO8,26,C2/c,-1.217024579102564,False
878,mp-779166,LiCo3NiO8,26,R-3m,-1.2112995817948702,False
879,mp-756289,LiMnFeO4,28,P4_322,-1.88107862589491,False
880,mp-774424,LiMnVO4,28,P4_322,-2.3080218441091955,False
881,mp-775199,LiMnVO4,28,Pnma,-2.3576273244663386,False
882,mp-758062,Li2NbCo3O8,56,P4_332,-1.955367054583333,False
883,mp-755986,Li2NbCr3O8,28,R-3m,-2.5516491115476185,False
884,mp-758202,Li2NbCr3O8,28,P6_3mc,-2.5663808040476184,False
885,mp-775164,Li2NbCr3O8,56,P4_332,-2.5568699390476186,False
886,mp-757277,Li2Ti2CoO6,44,Cmce,-2.7361332541666665,False
887,mp-1222689,Li2Ti2MnNiO8,28,C2/m,-2.592358432233169,False
888,mp-1662153,Li2Ti3CoO8,56,Pmc2_1,-2.922946209940476,False
889,mp-1664613,Li2Ti3CoO8,56,Cm,-2.923457563154762,False
890,mp-761669,Li2Ti3CoO8,56,R3m,-2.9447917827976187,False
891,mp-768110,Li2Ti3CoO8,56,P2_13,-2.980114611190476,True
892,mp-775110,Li2Ti3CoO8,28,P6_3mc,-2.9239179151190475,False
893,mp-756280,Li2Ti3CrO8,56,R-3m,-3.061923763690476,False
894,mp-774760,Li2Ti3CrO8,56,P4_332,-3.059219759404762,False
895,mp-777904,Li2Ti3CrO8,28,P6_3mc,-3.031734534047619,False
896,mp-753453,Li2TiCo2O5,20,C2,-2.2042451042500004,False
897,mp-769646,Li2TiCo2O5,20,C2,-2.2121375062499995,False
898,mp-770848,Li2TiCo2O5,20,C2/c,-2.23610347525,False
899,mp-1177861,Li2TiCo3O8,56,P1,-1.9143016735714278,False
900,mp-1661621,Li2TiCo3O8,28,P1,-1.9245397796428563,False
901,mp-757968,Li2TiCo3O8,56,P4_332,-1.9718200189285713,False
902,mp-762215,Li2TiCo3O8,56,C2,-1.9079891107142848,False
903,mp-773179,Li2TiCo3O8,28,Cc,-1.9638515771428564,False
904,mp-1177850,Li2TiCoO4,32,Imma,-2.5116828309374997,False
905,mp-757086,Li2TiCr2O6,22,Cmce,-2.6280162677272725,False
906,mp-1177851,Li2TiCr3O8,28,C2/m,-2.503713994285714,False
907,mp-1178000,Li2TiCr3O8,56,C222_1,-2.564981592142857,False
908,mp-1275461,Li2TiCr3O8,28,C2/m,-2.5662397828571426,False
909,mp-1291363,Li2TiCr3O8,28,C2/c,-2.5660764928571425,False
910,mp-1307652,Li2TiCr3O8,28,P2_1/m,-2.5036580214285706,False
911,mp-1318887,Li2TiCr3O8,28,C2/c,-2.564835990357142,False
912,mp-772612,Li2TiCr3O8,28,P6_3mc,-2.5398847514285703,False
913,mp-780807,Li2TiCr3O8,28,P-1,-2.4987253596428567,False
914,mp-867983,Li2TiCr3O8,56,P4_332,-2.5538450724999993,False
915,mp-1177868,Li2TiCrO4,32,I-4m2,-2.651773415937501,False
916,mp-1273630,Li2TiCrO4,32,C2/m,-2.6511095512500003,False
917,mp-1276652,Li2TiCrO4,32,I-42d,-2.6521510184375003,False
918,mp-1280664,Li2TiCrO4,32,C2/m,-2.6529152400000005,False
919,mp-1284253,Li2TiCrO4,32,Cm,-2.6514276428125,False
920,mp-1285671,Li2TiCrO4,32,Cm,-2.6521399287500005,False
921,mp-1302453,Li2TiCrO4,32,C2,-2.6577143328125006,False
922,mp-1222732,Li2TiMn2NiO8,28,C2/m,-2.2583696347044335,False
923,mp-1210963,Li2Zn2(MoO4)3,76,Pnma,-2.0366782785087714,False
924,mp-1297722,Li3(CoO2)4,30,P1,-1.5639554406666663,False
925,mp-1302545,Li3(CoO2)4,30,C2/c,-1.5761468993333323,False
926,mp-1303525,Li3(CoO2)4,30,P2/m,-1.5735352869999994,False
927,mp-1303680,Li3(CoO2)4,30,C2/c,-1.5369024096666664,False
928,mp-1312267,Li3(CoO2)4,30,P-1,-1.5618384463333324,False
929,mp-850808,Li3(CoO2)4,30,R-3m,-1.5640806619999996,False
930,mp-774507,Li3(CoO2)5,36,P1,-1.506076993611111,False
931,mp-777154,Li32Ti11Cr5O48,96,C2,-2.7357266010763888,False
932,mp-777936,Li32Ti11Cr5O48,96,P1,-2.741392195138888,False
933,mp-1177737,Li32Ti13Cr3O48,96,P1,-2.836584878333332,False
934,mp-1177811,Li32Ti13Cr3O48,96,P1,-2.836967944166666,False
935,mp-1177824,Li32Ti13Cr3O48,96,P1,-2.8371887874999993,False
936,mp-776967,Li32Ti13Cr3O48,96,P1,-2.836555885833333,False
937,mp-777110,Li32Ti13Cr3O48,96,P1,-2.8368649990625,False
938,mp-777374,Li32Ti13Cr3O48,96,P1,-2.836753997708333,False
939,mp-777376,Li32Ti13Cr3O48,96,P1,-2.8363969899999995,False
940,mp-1177743,Li32Ti3Cr13O48,96,P1,-2.3714344166319434,False
941,mp-776968,Li32Ti3Cr13O48,96,P1,-2.3713803774652766,False
942,mp-776969,Li32Ti3Cr13O48,96,P1,-2.371765397152777,False
943,mp-777044,Li32Ti3Cr13O48,96,P1,-2.37147128204861,False
944,mp-777345,Li32Ti3Cr13O48,96,P1,-2.3715089790277766,False
945,mp-777397,Li32Ti3Cr13O48,96,P1,-2.3708781631944427,False
946,mp-777482,Li32Ti3Cr13O48,96,P1,-2.3712492004861097,False
947,mp-777558,Li32Ti3Cr13O48,96,P1,-2.3718848515277764,False
948,mp-777593,Li32Ti3Cr13O48,96,P1,-2.370922023402777,False
949,mp-778621,Li32Ti3Cr13O48,96,P1,-2.37145606861111,False
950,mp-777532,Li32Ti5Cr11O48,96,C2,-2.4518441436805554,False
951,mp-777735,Li32Ti5Cr11O48,96,P1,-2.450856176076389,False
952,mp-757535,Li35(RuO4)12,95,C2,-1.9212585393333328,False
953,mp-867584,Li3Co13O16,32,P-1,-1.3486809118749994,False
954,mp-761039,Li3Co13O5F19,40,P1,-2.1059735888750004,False
955,mp-1173960,Li3Co2O5,20,P-1,-1.7346646332499993,False
956,mp-1173970,Li3Co2O5,20,C2/m,-1.7029729717499997,False
957,mp-1173982,Li3Co2O5,20,P-1,-1.6666148702499997,False
958,mp-1173983,Li3Co2O5,20,C2/m,-1.6665471112499994,False
959,mp-1173994,Li3Co2O5,20,P-1,-1.6695934482499992,False
960,mp-1174005,Li3Co2O5,20,P-1,-1.6933796532499996,False
961,mp-1174026,Li3Co2O5,20,C2/m,-1.6907239697499996,False
962,mp-1174044,Li3Co2O5,20,C2/m,-1.6785617867499993,False
963,mp-849429,Li3Co2OF5,22,F222,-2.4970817927272724,False
964,mp-758755,Li3Co3OF7,28,R3m,-2.500025402142857,False
965,mp-761096,Li3Co3OF7,28,Cm,-2.502542795714287,False
966,mp-765761,Li3Co3OF7,28,Cc,-2.5007900885714287,False
967,mp-754832,Li3Co5OF11,20,P1,-2.42839799725,False
968,mp-760970,Li3Co5OF11,20,P1,-2.4240018157499996,False
969,mp-760920,Li3CoO2F,28,Pnnm,-2.102244945714286,False
970,mp-759806,Li3CoOF3,32,P4/mmm,-2.6345301528125002,False
971,mp-768634,Li3Cr4O8,30,R-3m,-2.3134583873333336,False
972,mp-1282829,Li3Cr5O8,32,C2/m,-2.2276099956249995,False
973,mp-1311453,Li3Cr5O8,32,P-1,-2.229298639375,False
974,mp-770755,Li3CrO3,28,P-31c,-2.1897639239285724,False
975,mp-754470,Li3CrO4,32,Cmmm,-2.0939203896875,False
976,mp-770728,Li3CrO4,48,P2,-2.103532293125001,False
977,mp-770928,Li3CrO4,32,C2/c,-2.1030129612499993,False
978,mp-772659,Li3CrO4,32,P4_122,-2.0884392453124994,False
979,mp-756364,Li3Mn(NiO3)2,24,C2/m,-1.7652703539942525,False
980,mp-867526,Li3Mn(NiO3)2,24,C2/c,-1.7522382589942527,False
981,mp-758846,Li3Mn2Ni5O12,22,C2,-1.5205177139028208,False
982,mp-758709,Li3Mn5(NiO6)2,66,P1,-1.864427852560083,False
983,mp-755780,Li3Nb2CrO6,48,C2/m,-2.5027076733333318,False
984,mp-754180,Li3Ti2CoO6,24,C2/m,-2.687136140555556,False
985,mp-756972,Li3Ti2CrO6,48,C2/m,-2.7594805626388883,False
986,mp-772982,Li3Ti6Co3O16,56,P2_1,-2.862402834107143,False
987,mp-761172,Li3TiCo3O8,30,P6_3mc,-2.029173650222221,False
988,mp-1306033,Li3TiCr2O6,24,P-1,-2.566884166527778,False
989,mp-1312729,Li3TiCr2O6,24,P2_1/m,-2.560586611527777,False
990,mp-754193,Li3TiCr3O8,30,R-3m,-2.5904722435555554,False
991,mp-757225,Li3TiCr3O8,30,C2/m,-2.5836119425555553,False
992,mp-1177487,Li47(CoO4)8,87,P1,-1.9138374750191576,False
993,mp-850355,Li4Co(OF)2,36,C2/m,-2.295169981481481,False
994,mp-759373,Li4Co13O28,45,P1,-1.2431645571851853,False
995,mp-771244,Li4Co13O28,45,P1,-1.237350642740741,False
996,mp-758387,Li4Co15O28,47,P-1,-1.3274917517730485,False
997,mp-1308000,Li4Co2OF7,28,Cc,-2.6413380748809527,False
998,mp-1311086,Li4Co2OF7,28,Cc,-2.6413436109523807,False
999,mp-1311449,Li4Co2OF7,28,Pc,-2.6415005480952383,False
1000,mp-1174052,Li3MnCoO5,20,P1,-1.9388737205431041,False
1001,mp-1174053,Li3MnCoO5,20,C2/m,-1.9528180455431041,False
1002,mp-1174057,Li3MnCoO5,20,P-1,-1.937606414043104,False
1003,mp-1174064,Li3MnCoO5,20,C2/m,-1.9471330975431045,False
1004,mp-1174066,Li3MnCoO5,20,Cm,-1.9064539280431034,False
1005,mp-1174072,Li3MnCoO5,20,C2,-1.9527969260431035,False
1006,mp-1174074,Li3MnCoO5,20,C2/m,-1.9108769835431048,False
1007,mp-1174075,Li3MnCoO5,20,C2/m,-1.9379457420431039,False
1008,mp-1174079,Li3MnCoO5,20,P1,-1.9520018650431041,False
1009,mp-1174097,Li3MnCoO5,20,P-1,-1.9298346390431036,False
1010,mp-1174099,Li3MnCoO5,20,C2/m,-1.9351430860431038,False
1011,mp-1174101,Li3MnCoO5,20,P1,-1.9532016690431035,False
1012,mp-1174102,Li3MnCoO5,20,C2/m,-1.9406566925431037,False