,material_id,formula_pretty,nsites,crystal_system,formation_energy_per_atom,is_stable
2685,mp-1175351,Li7Mn5O12,48,P-1,-2.1155924257495218,False
2686,mp-1175354,Li7Mn5O12,48,C2/m,-2.1455597732495204,False
2687,mp-1175357,Li7Mn5O12,48,P2/m,-2.121443218666187,False
2688,mp-1175358,Li7Mn5O12,24,P2/m,-2.089628847207855,False
2689,mp-1175359,Li7Mn5O12,48,C2/m,-2.123895341582855,False
2690,mp-1175360,Li7Mn5O12,24,C2/m,-2.094041080124521,False
2691,mp-1175362,Li7Mn5O12,24,C2/m,-2.1225172751245207,False
2692,mp-1175363,Li7Mn5O12,48,P2/m,-2.142076196374521,False
2693,mp-1175365,Li7Mn5O12,24,C2/m,-2.122710228874521,False
2694,mp-1175366,Li7Mn5O12,24,P2/m,-2.0974011734578544,False
2695,mp-1175368,Li7Mn5O12,24,P2/m,-2.0999576730411884,False
2696,mp-1175373,Li7Mn5O12,24,P-1,-2.1176635513745214,False
2697,mp-1175375,Li7Mn5O12,48,C2/m,-2.1153208897078546,False
2698,mp-1175378,Li7Mn5O12,24,C2/m,-2.103214032207855,False
2699,mp-1175385,Li7Mn5O12,24,P2/m,-2.097362111791188,False
2700,mp-1232439,Li7Mn5O12,24,P-1,-2.1351783638745214,False
2701,mp-1638910,Li7Mn5O12,48,C2/m,-2.1272341872078546,False
2702,mp-1639032,Li7Mn5O12,48,P-1,-2.1390180284578544,False
2703,mp-1639283,Li7Mn5O12,48,P-1,-2.1364879686661875,False
2704,mp-1639930,Li7Mn5O12,48,P1,-2.1374508538745207,False
2705,mp-1639949,Li7Mn5O12,24,P1,-2.142661440957855,False
2706,mp-1640196,Li7Mn5O12,48,P-1,-2.134670409916188,False
2707,mp-1640750,Li7Mn5O12,24,P1,-2.137209788874521,False
2708,mp-1640981,Li7Mn5O12,24,P1,-2.136469143457855,False
2709,mp-1641274,Li7Mn5O12,48,P-1,-2.133353120124521,False
2710,mp-1642266,Li7Mn5O12,24,P1,-2.1408718367911876,False
2711,mp-1642624,Li7Mn5O12,48,P-1,-2.1357325532495213,False
2712,mp-1642906,Li7Mn5O12,48,P-1,-2.1383968942911875,False
2713,mp-1643099,Li7Mn5O12,48,P-1,-2.1406108938745203,False
2714,mp-1643648,Li7Mn5O12,48,P-1,-2.138398992832854,False
2715,mp-1643948,Li7Mn5O12,48,P-1,-2.1387006153328545,False
2716,mp-1643980,Li7Mn5O12,48,P1,-2.1409963469995215,False
2717,mp-1644001,Li7Mn5O12,48,P1,-2.140385633041188,False
2718,mp-1644153,Li7Mn5O12,48,P-1,-2.1398595465828545,False
2719,mp-1644867,Li7Mn5O12,48,P-1,-2.1386880142911875,False
2720,mp-1646544,Li7Mn5O12,48,P-1,-2.1392447474161873,False
2721,mp-1646634,Li7Mn5O12,48,P-1,-2.136275768874521,False
2722,mp-1646892,Li7Mn5O12,48,P-1,-2.1377375761661876,False
2723,mp-1647928,Li7Mn5O12,48,P1,-2.1369494405411875,False
2724,mp-1648171,Li7Mn5O12,48,P-1,-2.138432665332854,False
2725,mp-1648875,Li7Mn5O12,48,P-1,-2.1390030211661877,False
2726,mp-1650669,Li7Mn5O12,48,P-1,-2.1327282682495206,False
2727,mp-1650854,Li7Mn5O12,48,P-1,-2.136936116999521,False
2728,mp-1651001,Li7Mn5O12,48,P-1,-2.1378837132495216,False
2729,mp-1651187,Li7Mn5O12,48,P-1,-2.1379918111661875,False
2730,mp-1651541,Li7Mn5O12,48,P-1,-2.1345275301245206,False
2731,mp-1652638,Li7Mn5O12,48,P-1,-2.136812489499521,False
2732,mp-1652820,Li7Mn5O12,24,P1,-2.1368870917911873,False
2733,mp-1666644,Li7Mn5O12,48,P-1,-2.1390770101245207,False
2734,mp-1666665,Li7Mn5O12,48,P-1,-2.137601271582854,False
2735,mp-1666672,Li7Mn5O12,48,P-1,-2.1352265076245214,False
2736,mp-1666768,Li7Mn5O12,48,P-1,-2.1372285405411877,False
2737,mp-1667148,Li7Mn5O12,48,P-1,-2.134083240124521,False
2738,mp-1977994,Li7Mn5O12,48,P1,-2.1330672807495215,False
2739,mp-1978357,Li7Mn5O12,48,P-1,-2.133484961582855,False
2740,mp-756600,Li7Mn5O12,24,C2,-2.146259395957855,False
2741,mp-764764,Li7Mn5O12,48,C2/m,-2.154309112416188,False
2742,mp-767763,Li7Mn8O20,70,C2/m,-2.0123612261937605,False
2743,mp-753538,Li7MnO5F,56,P1,-2.172385479018883,False
2744,mp-1662701,Li7Ni(O2F)2,56,P1,-2.1324814675595234,False
2745,mp-1663705,Li7Ni(O2F)2,28,P1,-2.126600780595237,False
2746,mp-761279,Li7Ni(O2F)2,28,P1,-2.131140536666666,False
2747,mp-758593,Li7Ni13O24,44,C2/m,-1.2454962284848476,False
2748,mp-755638,Li7Ni5O12,24,C2,-1.5344557155555563,False
2749,mp-756388,Li7Ni5O12,24,C2,-1.5031738609722225,False
2750,mp-756913,Li7Ni5O12,24,P-1,-1.5175470838888885,False
2751,mp-768059,Li7Ni9O16,32,P-1,-1.440424572604167,False
2752,mp-765342,Li7NiOF7,32,Cm,-2.859795083020834,False
2753,mp-772995,Li7Ti12Fe5O32,56,R3,-2.9269873520238088,False
2754,mp-771056,Li7Ti5Mn12O32,56,P1,-2.455157381520936,False
2755,mp-753379,Li7V(O2F)2,56,P1,-2.4055200623809525,False
2756,mp-760137,Li7V(O2F)2,56,P1,-2.413417850595238,False
2757,mp-867592,Li7V(O2F)2,56,P1,-2.4014353993452384,False
2758,mp-758444,Li7V4O11F,23,P1,-2.5103495307971007,False
2759,mp-759231,Li7V4O11F,23,P1,-2.488410353405797,False
2760,mp-764844,Li7V4O11F,23,P1,-2.492457661666666,False
2761,mp-759692,Li7V5O12,24,C2/m,-2.427892848472222,False
2762,mp-766239,Li7V5O12,24,P-1,-2.4734855038888894,False
2763,mp-776654,Li7V5O12,24,C2,-2.4598938134722217,False
2764,mp-775890,Li7V6(OF)12,74,P1,-2.7082908806306305,False
2765,mp-759648,Li7VO5F,28,P-1,-2.3433122291666657,False
2766,mp-761099,Li7VO5F,28,P1,-2.3617723134523803,False
2767,mp-764775,Li7VO5F,56,P1,-2.3390196082738086,False
2768,mp-1638858,Li8(FeO2)5,46,P1,-1.801036975724638,False
2769,mp-1643420,Li8(FeO2)5,46,P-1,-1.8038574687681161,False
2770,mp-1643829,Li8(FeO2)5,46,P-1,-1.8019109622463767,False
2771,mp-753255,Li8(FeO2)5,23,P-1,-1.8198378168115945,False
2772,mp-758772,Li8(NiO2)11,82,P1,-1.3273592365040643,False
2773,mp-755081,Li8(NiO2)5,23,P-1,-1.5992359761594195,False
2774,mp-1176841,Li8Fe(O2F)2,30,P-1,-2.2179720941111105,False
2775,mp-752873,Li8Fe(O2F)2,60,P-1,-2.230401152277777,False
2776,mp-759890,Li8Fe(O2F)2,30,Cmc2_1,-2.2066369854444443,False
2777,mp-764500,Li8Fe(O2F)2,30,P-1,-2.2252117817777775,False
2778,mp-779474,Li8Fe2O7,68,P2_1/c,-1.9586143103921558,False
2779,mp-772983,Li8Fe2O9,76,P-1,-1.8418199350877198,False
2780,mp-1176945,Li8Fe7O15,30,C2/m,-1.8582979836388887,False
2781,mp-776549,Li8FeO5F,30,P6_3,-2.165855652111112,False
2782,mp-756356,Li8FeO6,30,P-1,-1.9643862257777773,False
2783,mp-763305,Li8FeO6,30,Cmc2_1,-1.9672172191111106,False
2784,mp-763440,Li8Mn(O2F)2,30,P-1,-2.27994277097318,False
2785,mp-763831,Li8Mn(O2F)2,30,Cmc2_1,-2.260585949973181,False
2786,mp-780086,Li8Mn(O2F)2,60,P-1,-2.2762018221398472,False
2787,mp-773132,Li8Mn2O9,76,P-1,-1.980619324738354,False
2788,mp-764701,Li8Mn5O10,23,P1,-2.0366385391879054,False
2789,mp-759775,Li8Mn9O18,70,P1,-2.115056772087028,False
2790,mp-753625,Li8MnO5F,60,P1,-2.206632855139846,False
2791,mp-766137,Li8MnO5F,30,P1,-2.167981163973179,False
2792,mp-771075,Li8MnO6,30,P6_3cm,-2.030388163306513,False
2793,mp-754201,Li8Nb(FeO4)3,24,P-1,-2.0709923502777774,False
2794,mp-1176816,Li8Ni(O2F)2,60,P-1,-2.1652193042777768,False
2795,mp-760066,Li8NiO5F,30,P1,-2.0108884167777785,False
2796,mp-764727,Li8NiO5F,30,P6_3,-2.0250417477777782,False
2797,mp-772622,Li8Ti6Mn7O30,51,P3,-2.4993734083761554,False
2798,mp-767679,Li8TiMn3O12,48,P2,-2.290731757866378,False
2799,mp-760950,Li8TiNi7O16,32,P1,-1.7379222540625001,False
2800,mp-768084,Li8V11O22,41,P-1,-2.459176787601626,False
2801,mp-752889,Li8VO5F,60,P1,-2.2735418589444434,False
2802,mp-859132,Li8VO5F,30,P6_3,-2.2712894131111105,False
2803,mp-1315015,Li8VO6,30,P-1,-2.2067955187777772,False
2804,mp-756255,Li8VO6,60,P-1,-2.2075640221111104,False
2805,mp-759144,Li9(FeO4)2,38,Pc,-1.9050177718421044,False
2806,mp-780203,Li9(FeO4)2,38,P1,-1.9205410584210518,False
2807,mp-769454,Li9(NiO2)10,39,P-1,-1.4375439041025635,False
2808,mp-775731,Li9(NiO4)2,76,Pca2_1,-1.6995471564473683,False
2809,mp-772996,Li9Fe23O32,64,C2,-1.7012126006250003,False
2810,mp-780155,Li9Fe3(OF7)2,28,P-1,-2.8365956471428575,False
2811,mp-764889,Li9Fe5O12,26,C2/m,-1.9124249888461538,False
2812,mp-780186,Li9Mn10O20,39,P1,-2.09959945280283,False
2813,mp-769514,Li9Mn12Cu3O32,56,R3,-1.884498099020936,False
2814,mp-766830,Li9Mn14O32,55,Cm,-2.016238769836991,False
2815,mp-531804,Li9Mn15O32,56,P1,-2.056898601945813,False
2816,mp-767704,Li9Mn15O32,56,C2/m,-2.015496508552956,False
2817,mp-769450,Li9Mn15O32,56,P1,-2.059286501945813,False
2818,mp-673697,Li9Mn20O40,69,I-4,-1.963110058675661,False
2819,mp-690161,Li9Mn20O40,69,P1,-2.0382960467916043,False
2820,mp-1177178,Li9Mn21O40,70,F222,-2.041797981093597,False
2821,mp-530725,Li9Mn21O40,70,I-4,-1.9696225862364534,False
2822,mp-776365,Li9Mn21O40,70,P1,-2.058711225093597,False
2823,mp-530336,Li9Mn22O48,79,Cm,-1.9121248389175034,False
2824,mp-1176815,Li9Mn5O12,52,C2/c,-2.057065993832892,False
2825,mp-1100476,Li9Mn7O16,32,P2/m,-2.1145662526724136,False
2826,mp-1100477,Li9Mn7O16,32,P2/m,-2.1237667498599135,False
2827,mp-1100479,Li9Mn7O16,32,P2/m,-2.1238940620474134,False
2828,mp-1100480,Li9Mn7O16,32,C2/m,-2.1015260042349135,False
2829,mp-1100481,Li9Mn7O16,32,P2/m,-2.139729667359914,False
2830,mp-1100482,Li9Mn7O16,32,P2/m,-2.126922847984914,False
2831,mp-1100483,Li9Mn7O16,32,P2/m,-2.1250125126724138,False
2832,mp-1100484,Li9Mn7O16,32,C2/m,-2.1273343304849135,False
2833,mp-1100485,Li9Mn7O16,32,C2/m,-2.1214923189224137,False
2834,mp-1100486,Li9Mn7O16,32,C2/m,-2.119740657984914,False
2835,mp-1100487,Li9Mn7O16,32,C2/m,-2.1241662057974136,False
2836,mp-1100488,Li9Mn7O16,32,C2/m,-2.1197196882974136,False
2837,mp-1100489,Li9Mn7O16,32,C2/m,-2.1143697195474136,False
2838,mp-1100490,Li9Mn7O16,32,C2/m,-2.114549971422414,False
2839,mp-1100491,Li9Mn7O16,32,C2/m,-2.115474293609914,False
2840,mp-1100492,Li9Mn7O16,32,C2/m,-2.1407248061099136,False
2841,mp-1100493,Li9Mn7O16,32,C2/m,-2.123043718922414,False
2842,mp-1100494,Li9Mn7O16,32,C2/m,-2.1257733201724136,False
2843,mp-1100495,Li9Mn7O16,32,C2/m,-2.1204969711099135,False
2844,mp-1100496,Li9Mn7O16,32,C2/m,-2.125406875484914,False
2845,mp-1100497,Li9Mn7O16,32,C2/m,-2.1388421242349134,False
2846,mp-1100498,Li9Mn7O16,32,C2/m,-2.1146301123599134,False
2847,mp-1100499,Li9Mn7O16,32,C2/m,-2.1379723864224136,False
2848,mp-1100500,Li9Mn7O16,32,C2/m,-2.1156114332974134,False
2849,mp-1100501,Li9Mn7O16,32,P-1,-2.1222911823599135,False
2850,mp-1100502,Li9Mn7O16,32,P-1,-2.117663078922414,False
2851,mp-1100503,Li9Mn7O16,32,P-1,-2.100315759859914,False
2852,mp-1100504,Li9Mn7O16,32,P-1,-2.100337076422414,False
2853,mp-1100505,Li9Mn7O16,32,C2/m,-2.1380175629849134,False
2854,mp-1100506,Li9Mn7O16,32,P-1,-2.1220142870474135,False
2855,mp-1100507,Li9Mn7O16,32,P-1,-2.1208482720474136,False
2856,mp-1100508,Li9Mn7O16,32,P-1,-2.1224083989224134,False
2857,mp-1100509,Li9Mn7O16,32,P-1,-2.1182456507974132,False
2858,mp-1100510,Li9Mn7O16,32,P-1,-2.1246299357974134,False
2859,mp-1100511,Li9Mn7O16,32,P-1,-2.122655513922414,False
2860,mp-1100512,Li9Mn7O16,32,P-1,-2.122713958297414,False
2861,mp-1100513,Li9Mn7O16,32,P-1,-2.1260521457974138,False
2862,mp-1100514,Li9Mn7O16,32,P-1,-2.1382016145474134,False
2863,mp-1100515,Li9Mn7O16,32,P-1,-2.130847427672414,False
2864,mp-1100516,Li9Mn7O16,32,P-1,-2.1320988223599135,False
2865,mp-1100517,Li9Mn7O16,32,P-1,-2.135342977984914,False
2866,mp-1100518,Li9Mn7O16,32,P-1,-2.130875232359914,False
2867,mp-1100519,Li9Mn7O16,32,P-1,-2.1360346436099134,False
2868,mp-1100520,Li9Mn7O16,32,P-1,-2.134672042359914,False
2869,mp-1100521,Li9Mn7O16,32,P-1,-2.1225713795474137,False
2870,mp-1100522,Li9Mn7O16,32,P-1,-2.135032803922414,False
2871,mp-1100523,Li9Mn7O16,32,P-1,-2.1365021636099133,False
2872,mp-1100524,Li9Mn7O16,32,P-1,-2.1330137854849136,False
2873,mp-1100526,Li9Mn7O16,32,P-1,-2.1371667679849136,False
2874,mp-1100529,Li9Mn7O16,32,P-1,-2.1306902742349134,False
2875,mp-1100530,Li9Mn7O16,32,P-1,-2.131617849234914,False
2876,mp-1100531,Li9Mn7O16,32,P-1,-2.1301391936099137,False
2877,mp-1100532,Li9Mn7O16,32,P-1,-2.1305077061099134,False
2878,mp-1100533,Li9Mn7O16,32,P-1,-2.121998009547414,False
2879,mp-1100534,Li9Mn7O16,32,P-1,-2.1308563814224133,False
2880,mp-1100535,Li9Mn7O16,32,P-1,-2.130418022672414,False
2881,mp-1100536,Li9Mn7O16,32,P-1,-2.1413749220474134,False
2882,mp-1100537,Li9Mn7O16,32,P-1,-2.130538839234914,False
2883,mp-1100538,Li9Mn7O16,32,P-1,-2.1309504879849133,False
2884,mp-1100539,Li9Mn7O16,32,P-1,-2.132322541734914,False
2885,mp-1100540,Li9Mn7O16,32,P-1,-2.139485141422414,False
2886,mp-1100541,Li9Mn7O16,32,P-1,-2.1424206670474133,False
2887,mp-1100542,Li9Mn7O16,32,P-1,-2.1303360748599136,False
2888,mp-1100543,Li9Mn7O16,32,P-1,-2.132192824234914,False
2889,mp-1100544,Li9Mn7O16,32,P-1,-2.132591583922414,False
2890,mp-1100545,Li9Mn7O16,32,P-1,-2.1325731936099137,False
2891,mp-1100546,Li9Mn7O16,32,P-1,-2.1325541404849133,False
2892,mp-1100547,Li9Mn7O16,32,P-1,-2.132571608609914,False
2893,mp-1100549,Li9Mn7O16,32,P-1,-2.1406583807974133,False
2894,mp-1100551,Li9Mn7O16,32,P-1,-2.140777826422414,False
2895,mp-1100552,Li9Mn7O16,32,P-1,-2.1350276767349134,False
2896,mp-1100553,Li9Mn7O16,32,P-1,-2.1413325948599136,False
2897,mp-1100554,Li9Mn7O16,32,P-1,-2.1388009626724136,False
2898,mp-1100555,Li9Mn7O16,32,P-1,-2.1365399323599137,False
2899,mp-1100556,Li9Mn7O16,32,P-1,-2.140088582672414,False
2900,mp-1100557,Li9Mn7O16,32,P-1,-2.1403252651724136,False
2901,mp-1100558,Li9Mn7O16,32,P-1,-2.1344003607974136,False
2902,mp-1100559,Li9Mn7O16,32,P-1,-2.1325788207974137,False
2903,mp-1100562,Li9Mn7O16,32,P-1,-2.1356297361099132,False
2904,mp-1100580,Li9Mn7O16,32,P2/m,-2.1257529157974133,False
2905,mp-1100581,Li9Mn7O16,32,P2/m,-2.138892982672414,False
2906,mp-849386,Li9Nb7V12O48,76,P1,-2.587547452236842,False
2907,mp-850928,Li9Nb7V12O48,76,P1,-2.585105171842105,False
2908,mp-759153,Li9Ni15O28,52,P-1,-1.2873551873076907,False
2909,mp-531942,Li9Ni23O32,64,P1,-1.3512060590624992,False
2910,mp-776279,Li9V19O48,76,P1,-2.408962153289472,False
2911,mp-766679,Li9V21O40,70,I-4,-2.504866060857142,False
2912,mp-776467,Li9Y(NiO4)2,80,Pnma,-2.0406960295,False
2913,mp-773010,LiFe23O32,56,R-3m,-1.6162361391666664,False
2914,mp-1176736,LiFe2OF3,28,R-3m,-2.392843708333333,False
2915,mp-1176740,LiFe2OF3,28,C2/m,-2.3755330233333334,False
2916,mp-754813,LiFe2OF3,28,Imm2,-2.392312720119047,False
2917,mp-755273,LiFe2OF3,28,P222_1,-2.3559316261904755,False
2918,mp-759258,LiFe2OF3,28,Pm,-2.3440686101190473,False
2919,mp-760175,LiFe2OF3,28,Pnma,-2.3875383869047613,False
2920,mp-760363,LiFe2OF3,28,P1,-2.353707673333333,False
2921,mp-775178,LiFe2OF3,28,P4_3,-2.3475839911904757,False
2922,mp-776904,LiFe2OF3,28,Pnma,-2.4039489447619045,False
2923,mp-778119,LiFe2OF3,28,Pnma,-2.394104600119047,False
2924,mp-1176737,LiFe2OF5,36,Ama2,-2.548314827314815,False
2925,mp-776044,LiFe2OF5,27,P3_1,-2.5014359770370365,False
2926,mp-776089,LiFe2OF5,27,P1,-2.5341048444444434,False
2927,mp-776544,LiFe2OF5,36,Pc,-2.518419683703703,False
2928,mp-776546,LiFe2OF5,27,P1,-2.5237695466666654,False
2929,mp-776551,LiFe2OF5,36,Pc,-2.5004904564814816,False
2930,mp-779300,LiFe2OF5,36,Cc,-2.5396829384259263,False
2931,mp-850961,LiFe2OF5,27,P1,-2.522684619259258,False
2932,mp-754427,LiFe3(OF3)2,24,P2_1/c,-2.4683388944444435,False
2933,mp-755919,LiFe3(OF3)2,24,P-1,-2.415374519861111,False
2934,mp-758661,LiFe3OF5,20,P1,-2.397976963833332,False
2935,mp-776991,LiFe4OF7,26,P2_1,-2.4436264594871795,False
2936,mp-21735,LiFe5O8,56,P4_332,-1.7095260143452384,False
2937,mp-754332,LiFe7(OF3)3,20,P1,-2.2536166714166677,False
2938,mp-756497,LiFeO2,20,P-1,-1.9154094775833328,False
2939,mp-850511,LiFeO2,64,Pbca,-1.8624594719270826,False
2940,mp-781596,LiFeOF2,40,P1,-2.473243420916667,False
2941,mp-849274,LiFeOF2,20,C2/c,-2.518856848166666,False
2942,mp-851087,LiFeOF2,20,P6_3/mmc,-2.497273773166667,False
2943,mp-766948,LiMn10O20,62,I4_1/a,-1.8267474055691504,False
2944,mp-694894,LiMn12O24,74,P2/c,-1.8176759568515062,False
2945,mp-1003549,LiMn16O32,49,Pm,-1.8337334881679574,False
2946,mp-775739,LiMn28O56,85,R3,-1.7736278608870861,False
2947,mp-1639919,LiMn2O3,24,C2,-2.0720233165325666,False
2948,mp-1639950,LiMn2O3,24,P1,-2.0721918498659,False
2949,mp-770537,LiMn2O3,24,C2/c,-2.0698274831992336,False
2950,mp-1274983,LiMn2O3F,28,C2/c,-2.309229067027914,False
2951,mp-1275142,LiMn2O3F,28,C2/m,-2.309951433813628,False
2952,mp-753642,LiMn2O3F,28,Imm2,-2.2652823070279138,False
2953,mp-753835,LiMn2O3F,28,Pnma,-2.3165927970279148,False
2954,mp-753908,LiMn2O3F,28,P2_1,-2.243369774170771,False
2955,mp-756723,LiMn2O3F,28,Pna2_1,-2.254922817027914,False
2956,mp-767636,LiMn2O3F,28,Cc,-2.268844515599343,False
2957,mp-1016095,LiMn2O4,42,Cc,-2.0065423741707713,False
2958,mp-1097867,LiMn2O4,42,P1,-2.060603496313629,False
2959,mp-22584,LiMn2O4,42,Fd-3m,-2.020669213456486,False
2960,mp-758700,LiMn2O4,42,P1,-2.0065586810755334,False
2961,mp-771290,LiMn2O4,28,P6_3mc,-2.038290940599343,False
2962,mp-753996,LiMn2OF3,28,Pnma,-2.6752541388136284,False
2963,mp-756757,LiMn2OF3,28,Pnma,-2.6890070177422003,False
2964,mp-759613,LiMn2OF3,28,P-3m1,-2.6803020927422,False
2965,mp-760089,LiMn2OF3,28,Pnma,-2.660591094527915,False
2966,mp-763454,LiMn2OF3,28,Imm2,-2.6691355070279146,False
2967,mp-761120,LiMn2OF5,36,Cc,-2.7095943504661566,False
2968,mp-767727,LiMn2OF5,36,Pca2_1,-2.660038530466155,False
2969,mp-768334,LiMn2OF5,36,Pc,-2.670430970188379,False
2970,mp-753341,LiMn3(OF3)2,24,P2_1/c,-2.6426085668438692,False
2971,mp-753814,LiMn3(OF3)2,24,P-1,-2.6040953460105367,False
2972,mp-770511,LiMn3O5,36,Pbam,-2.0289636852362714,False
2973,mp-1176672,LiMn3O6,40,Cc,-1.9770615892126429,False
2974,mp-753112,LiMn3O6,20,Cc,-1.9416211642126426,False
2975,mp-758426,LiMn3O6,40,I4_1/amd,-1.9162130974626437,False
2976,mp-762514,LiMn3O6,40,P1,-1.9434524024626427,False
2977,mp-763655,LiMn3O6,40,P1,-1.9753852612126437,False
2978,mp-753922,LiMn3OF5,20,P1,-2.7382200377126438,False
2979,mp-761133,LiMn3OF5,40,Cc,-2.738256223962644,False
2980,mp-759751,LiMn3OF8,52,Pc,-2.6736319355481872,False
2981,mp-1003315,LiMn4O8,52,P2_1/c,-1.9205061278890367,False
2982,mp-1004762,LiMn4O8,26,Cmc2_1,-1.9092553657736526,False
2983,mp-1195443,LiMn4O8,52,P2_13,-1.9095438244274983,False
2984,mp-35530,LiMn4O8,52,F-43m,-1.9060827473121134,False
2985,mp-756860,LiMn5(CuO6)2,20,C2,-1.6549240746494256,False
2986,mp-759136,LiMn5O10,32,P-1,-1.831025322061782,False
2987,mp-770866,LiMn5O8,56,P4_332,-2.0187076537848947,False
2988,mp-1176651,LiMn6O12,57,P1,-1.8666378844343618,False
2989,mp-758753,LiMn6O12,57,C2,-1.8629513481185715,False
2990,mp-759358,LiMn7(O3F)3,20,R3,-2.1812369736925286,False
2991,mp-753079,LiMn7(OF3)3,20,P1,-2.6307173696925283,False
2992,mp-1312332,LiMn7O12,40,C2/m,-1.9386376314425284,False
2993,mp-753234,LiMn7O12,20,C2,-1.9312583049425278,False
2994,mp-755432,LiMn7O12,20,Im-3,-1.938471147942527,False
2995,mp-770641,LiMn7O12,80,I4_1/acd,-1.9491730203175273,False
2996,mp-1176738,LiMn7O14,88,C2/c,-1.8561996708568438,False
2997,mp-1016165,LiMn8O16,50,Pc,-1.8640591594712645,False
2998,mp-1222484,LiMn8O16,25,P-4m2,-1.8393003590712647,False
2999,mp-36240,LiMn8O16,50,Pmmn,-1.842537996871265,False
3000,mp-769557,LiMnNbO4,28,Imma,-2.577022775537768,False
3001,mp-771705,LiMnNbO4,28,P4_322,-2.6572942305377683,True
3002,mp-861271,LiMnNbO4,28,P4_322,-2.6403290551806253,False
3003,mp-1275540,LiMnO2,32,P-1,-2.1113551734410914,False
3004,mp-1284778,LiMnO2,32,P-1,-2.1138373843785923,False
3005,mp-1303262,LiMnO2,32,P-1,-2.1111871775035924,False
3006,mp-1311873,LiMnO2,32,P1,-2.1077532062535917,False
3007,mp-531604,LiMnO2,80,Cm,-2.1413934500660927,False
3008,mp-675370,LiMnO2,56,Pmm2,-2.142373548708949,False
3009,mp-754881,LiMnO2,24,Pmmn,-2.0970298748994254,False
3010,mp-756475,LiMnO2,40,P-1,-2.107906736066093,False
3011,mp-756747,LiMnO2,24,P-1,-2.1256331244827584,False
3012,mp-779788,LiMnO2,48,P1,-2.1144667776077584,False
3013,mp-753743,LiMnOF2,20,P-1,-2.6200729277528736,False
3014,mp-753878,LiMnOF2,20,Pnma,-2.630600112752873,False
3015,mp-759508,LiMnOF2,40,Pc,-2.620355168502873,False
3016,mp-759845,LiMnOF2,40,Pc,-2.618918465502874,False
3017,mp-760040,LiMnOF2,20,Pnn2,-2.6117577257528737,False
3018,mp-765076,LiMnOF2,20,C2/c,-2.6172749632528736,False
3019,mp-776488,LiMnOF2,20,C2/c,-2.674849041752874,False
3020,mp-774457,LiNb7V12O48,68,P1,-2.531123986519607,False
3021,mp-1274978,LiNbFeO4,28,I2_12_12_1,-2.44787568797619,False
3022,mp-1303296,LiNbFeO4,28,Pnma,-2.4535749651190466,False
3023,mp-1306620,LiNbFeO4,28,C2/c,-2.4522047822619046,False
3024,mp-1306952,LiNbFeO4,28,C2/c,-2.439309671547618,False
3025,mp-756415,LiNbFeO4,28,P4_322,-2.493285198333333,True
3026,mp-771892,LiNbFeO4,28,P4_322,-2.4877630994047615,False