,material_id,formula_pretty,nsites,crystal_system,formation_energy_per_atom,is_stable
3371,mp-1176847,Li8CoO5F,30,P1,-2.093694024444444,False
3372,mp-1305320,Li8CoO5F,30,P1,-2.0325475677777773,False
3373,mp-1305683,Li8CoO5F,60,P1,-2.055349826611111,False
3374,mp-1316403,Li8CoO5F,30,P1,-2.051644632111111,False
3375,mp-780787,Li8CoO5F,30,P2_1,-2.092018055444444,False
3376,mp-850211,Li8CoO5F,60,P1,-2.0613087674444444,False
3377,mp-27920,Li8CoO6,30,P6_3cm,-1.9375622167777777,False
3378,mp-770861,Li8Cr2O9,76,P-1,-2.083851490877193,False
3379,mp-756239,Li8CrO6,30,R-3,-2.102176144777778,False
3380,mp-780493,Li8CrO6,30,P6_3cm,-2.1338713017777775,False
3381,mp-771196,Li8Mn12Ni4O31,55,P1,-1.9339281718970742,False
3382,mp-772976,Li8Mn15NiO32,56,R32,-2.031767710636288,False
3383,mp-761013,Li8MnNi7O16,32,P-1,-1.5962680195186776,False
3384,mp-768425,Li9(CoO4)2,38,P2/m,-1.8287436878947365,False
3385,mp-776979,Li9(CoO4)2,76,Pca2_1,-1.849942751842105,False
3386,mp-676252,Li9(RuO3)10,49,P-1,-1.5687635317346948,False
3387,mp-758645,Li9Co13O28,50,P1,-1.5094132250000007,False
3388,mp-758732,Li9Co13O28,50,P1,-1.5089084935999995,False
3389,mp-1175374,Li9Co7O16,32,P-1,-1.7194019639062503,False
3390,mp-1175376,Li9Co7O16,32,P1,-1.716043019999999,False
3391,mp-1175379,Li9Co7O16,32,C2/m,-1.7052508437499991,False
3392,mp-1175380,Li9Co7O16,32,C2/m,-1.7022917584374992,False
3393,mp-1175381,Li9Co7O16,32,P-1,-1.7449103909374992,False
3394,mp-1175382,Li9Co7O16,32,C2/m,-1.6991098928124995,False
3395,mp-1175383,Li9Co7O16,32,C2/m,-1.6941714234374992,False
3396,mp-1175390,Li9Co7O16,32,C2/m,-1.6972251499999995,False
3397,mp-1175392,Li9Co7O16,32,P2/m,-1.7040370243749994,False
3398,mp-1175394,Li9Co7O16,32,P2/m,-1.6949767184374993,False
3399,mp-1175396,Li9Co7O16,32,P2/m,-1.685082584999999,False
3400,mp-1175400,Li9Co7O16,32,P-1,-1.6910086934374995,False
3401,mp-1175401,Li9Co7O16,32,P-1,-1.712186387187499,False
3402,mp-1175405,Li9Co7O16,32,P-1,-1.707719960624999,False
3403,mp-1175409,Li9Co7O16,32,P-1,-1.7465089278124992,False
3404,mp-1175410,Li9Co7O16,32,P-1,-1.7018358196874992,False
3405,mp-1175413,Li9Co7O16,32,P-1,-1.702947306562499,False
3406,mp-1175415,Li9Co7O16,32,C2/m,-1.7184555328124995,False
3407,mp-1175416,Li9Co7O16,32,P-1,-1.6665153706249995,False
3408,mp-1175418,Li9Co7O16,32,C2/m,-1.720945803124999,False
3409,mp-1175419,Li9Co7O16,32,P-1,-1.7463415709374992,False
3410,mp-1175428,Li9Co7O16,32,P-1,-1.7096895118749993,False
3411,mp-1175429,Li9Co7O16,32,P-1,-1.673220507499999,False
3412,mp-1175430,Li9Co7O16,32,P-1,-1.6921015128124992,False
3413,mp-1175436,Li9Co7O16,32,C2/m,-1.694212122812499,False
3414,mp-1175440,Li9Co7O16,32,P-1,-1.6766797424999993,False
3415,mp-1175443,Li9Co7O16,32,P-1,-1.6611774374999992,False
3416,mp-1175444,Li9Co7O16,32,P-1,-1.6934125799999995,False
3417,mp-1175445,Li9Co7O16,32,C2/m,-1.6974077034374995,False
3418,mp-1175447,Li9Co7O16,32,C2/m,-1.6984690528124995,False
3419,mp-1175449,Li9Co7O16,32,P2/m,-1.6873120253124991,False
3420,mp-1175450,Li9Co7O16,32,P2/m,-1.6951003287499997,False
3421,mp-1175451,Li9Co7O16,32,P-1,-1.6741151071874993,False
3422,mp-1175459,Li9Co7O16,32,P2/m,-1.6774266415624997,False
3423,mp-1175463,Li9Co7O16,32,P2/m,-1.6715347162499992,False
3424,mp-1175464,Li9Co7O16,32,P-1,-1.6580744187499992,False
3425,mp-1175466,Li9Co7O16,32,R-3m,-1.683922138749999,False
3426,mp-1175467,Li9Co7O16,32,P-1,-1.702500366249999,False
3427,mp-1175469,Li9Co7O16,32,P-1,-1.747679264374999,False
3428,mp-1175471,Li9Co7O16,32,C2/m,-1.6656435343749996,False
3429,mp-1175472,Li9Co7O16,32,P-1,-1.6684694449999995,False
3430,mp-1175476,Li9Co7O16,32,P-1,-1.6630980699999993,False
3431,mp-1175480,Li9Co7O16,32,C2/m,-1.689842612812499,False
3432,mp-1175482,Li9Co7O16,32,P1,-1.660073024999999,False
3433,mp-1175488,Li9Co7O16,32,P-1,-1.7078418546874996,False
3434,mp-1175492,Li9Co7O16,32,C2/m,-1.6876183331249992,False
3435,mp-1175500,Li9Co7O16,32,P-1,-1.6700371962499991,False
3436,mp-1175505,Li9Co7O16,32,P-1,-1.6901721799999994,False
3437,mp-1175506,Li9Co7O16,32,P2/m,-1.7311645246874994,False
3438,mp-1175507,Li9Co7O16,32,P-1,-1.6868583253124996,False
3439,mp-1175517,Li9Co7O16,32,P-1,-1.6600723668749993,False
3440,mp-1175519,Li9Co7O16,32,P-1,-1.692238736874999,False
3441,mp-1175521,Li9Co7O16,32,P-1,-1.681706299687499,False
3442,mp-1175529,Li9Co7O16,32,P2/m,-1.6844131503124995,False
3443,mp-1175571,Li9Co7O16,32,C2/m,-1.7095485606249996,False
3444,mp-851096,Li9Cr19O48,76,P1,-1.972036025921052,False
3445,mp-851274,Li9Cr19O48,76,P1,-1.961379820921053,False
3446,mp-761270,Li9Cr5O12,26,C2/m,-2.2607565757692307,False
3447,mp-1176793,Li9Mn12Ni3O32,56,R32,-1.9590484093780784,False
3448,mp-769460,Li9Mn12Ni3O32,56,C2,-1.961634923485222,False
3449,mp-759088,Li9Ti7Cr6O30,52,P3,-2.6899985822756403,False
3450,mp-759688,LiCo2OF3,28,Imm2,-2.2072101183333324,False
3451,mp-761004,LiCo2OF3,28,P4_3,-2.1836337572619042,False
3452,mp-765692,LiCo2OF3,28,Pnma,-2.1886060872619053,False
3453,mp-780720,LiCo2OF3,28,P2,-2.175963102619047,False
3454,mp-780767,LiCo2OF3,28,Pnma,-2.1887966186904753,False
3455,mp-850824,LiCo2OF3,28,Pm,-2.1984104861904767,False
3456,mp-780316,LiCo2OF5,36,Cc,-2.171582733425926,False
3457,mp-1639002,LiCo3(OF3)2,24,P2_1,-2.092143800277777,False
3458,mp-1643372,LiCo3(OF3)2,24,Pc,-2.0785827090277778,False
3459,mp-850982,LiCo3(OF3)2,24,P2_1/c,-2.1025695469444443,False
3460,mp-849366,LiCo3OF5,20,P1,-2.202533399833334,False
3461,mp-851033,LiCo3OF5,40,P1,-2.206314291583334,False
3462,mp-1290583,LiCo5O7F,28,P1,-1.444997599166667,False
3463,mp-1291653,LiCo5O7F,28,Cm,-1.4811713070238102,False
3464,mp-1306750,LiCo5O7F,28,Cm,-1.49163335952381,False
3465,mp-759572,LiCo5O7F,28,R3m,-1.4794033445238088,False
3466,mp-759353,LiCo5O8,56,P4_332,-1.3548124077380959,False
3467,mp-867664,LiCoO2,20,P-1,-1.6580040295833336,False
3468,mp-755335,LiCr2O3,24,C2/c,-2.1824222022222215,False
3469,mp-770684,LiCr2O4,28,Pnma,-2.2264949079761913,False
3470,mp-771322,LiCr2O4,28,P6_3mc,-2.2176458561904764,False
3471,mp-771523,LiCr2O4,28,Cc,-2.2411893058333336,False
3472,mp-772941,LiCr2O4,28,P4_322,-2.2523580054761916,False
3473,mp-774032,LiCr2O4,28,P1,-2.2558931797619053,False
3474,mp-770687,LiCr2O5,32,Pnma,-1.9682538466666664,False
3475,mp-554940,LiCr3O8,24,C2/m,-1.9034480302777783,False
3476,mp-674219,LiCr3O8,24,Pnnm,-1.9052928227777777,True
3477,mp-772513,LiCr3O8,48,Pnma,-1.8612486406944437,False
3478,mp-770652,LiCr3O9,78,Cc,-1.6935960217307688,False
3479,mp-772581,LiCr6O11,36,P6_3mc,-2.149370403935186,False
3480,mp-25284,LiMn2NiO6,20,C2/c,-1.6988649119195394,False
3481,mp-755037,LiNbCoO4,28,Imma,-2.3702029201190475,False
3482,mp-771821,LiNbCoO4,28,P4_322,-2.4018962529761905,False
3483,mp-777452,LiNbCoO4,28,P4_322,-2.431933303333334,False
3484,mp-755005,LiNbCrO4,28,Imma,-2.564772351547618,False
3485,mp-771962,LiNbCrO4,28,P4_322,-2.575913050119046,False
3486,mp-1313679,LiTiCoO4,28,C2/c,-2.4282063534523814,False
3487,mp-753505,LiTiCoO4,28,P4_322,-2.4178782984523814,False
3488,mp-1222347,LiTiCrO4,28,Pmc2_1,-2.85974381095238,False
3489,mp-756275,LiTiCrO4,28,Imma,-2.883957972738094,True
3490,mp-557310,LiY(MoO4)2,24,P-1,-2.4989191569444444,False
3491,mp-866198,LiY(MoO4)2,24,P-1,-2.477267201111111,False
3492,mp-1235516,LiY5(MoO6)2,20,C2/m,-3.218353259166667,False
3493,mp-1235884,LiY5(MoO6)2,20,Cm,-3.199408211666667,False
3494,mp-1236658,LiY5(MoO6)2,20,P1,-3.182171988666666,False