,material_id,formula_pretty,nsites,crystal_system,formation_energy_per_atom,is_stable
1013,mp-1174117,Li3MnCoO5,20,P-1,-1.9118500655431034,False
1014,mp-1174118,Li3MnCoO5,20,P1,-1.941192577043104,False
1015,mp-1174139,Li3MnCoO5,20,P-1,-1.9346641310431039,False
1016,mp-1174168,Li3MnCoO5,20,Cm,-1.9072355705431037,False
1017,mp-1174178,Li3MnCoO5,20,P1,-1.9209411170431039,False
1018,mp-1174188,Li3MnCoO5,20,P-1,-1.9346963095431036,False
1019,mp-1174235,Li3MnCoO5,20,P1,-1.9161609610431043,False
1020,mp-1174277,Li3MnCoO5,20,Cm,-1.9139582740431038,False
1021,mp-1306361,Li3MnCoO5,20,P1,-1.910074533043104,False
1022,mp-774249,Li3MnCr2O6,24,C2/m,-2.300955056910919,False
1023,mp-761106,Li3V(FeO3)2,24,Cmc2_1,-2.07729216125,False
1024,mp-757121,Li3V2FeO6,24,C2/m,-2.3117319237500005,False
1025,mp-775234,Li3V3(FeO6)2,80,P2_1/c,-2.235944798749999,False
1026,mp-1177479,Li3V4FeO12,20,P1,-2.3061743745000003,False
1027,mp-1568159,Li3V4FeO12,20,P1,-2.319207533000001,False
1028,mp-1666404,Li3V4FeO12,20,C2,-2.330405970000001,False
1029,mp-774648,Li3V4FeO12,40,C2,-2.3149270885000006,False
1030,mp-772865,Li3V6Fe4(CuO12)2,39,P-1,-2.04550846153846,False
1031,mp-1177549,Li3VFe3O8,30,Cc,-2.0142160149999997,False
1032,mp-760316,Li3VFe3O8,30,P6_3mc,-2.0134266303333326,False
1033,mp-758211,Li4Mn2Co3Cu3O16,28,Cm,-1.4624522474712631,False
1034,mp-778482,Li4Mn2Co3O10,38,P-1,-1.8177575102208108,False
1035,mp-774397,Li4Mn2Co5O12,46,P2_1,-1.6938752840954518,False
1036,mp-867530,Li4Mn2Nb3Cr3O16,28,Cm,-2.538037732471263,False
1037,mp-1642421,Li4Mn3(CoO4)3,44,P-1,-1.7865846828239285,False
1038,mp-755918,Li4Mn3(CoO4)3,22,P-1,-1.7808310980512012,False
1039,mp-754275,Li4Mn3Co5O16,28,Cm,-1.6800655266830873,False
1040,mp-1174203,Li4Mn3CoO8,32,C2/m,-2.023310064820402,False
1041,mp-1174270,Li4Mn3CoO8,32,C2/m,-2.0219137760704022,False
1042,mp-1273442,Li4Mn3CoO8,32,P-1,-2.019325118882902,False
1043,mp-1297796,Li4Mn3CoO8,32,C2/c,-2.0243691620079023,False
1044,mp-1301464,Li4Mn3CoO8,32,P-1,-2.0243299079454022,False
1045,mp-1305882,Li4Mn3CoO8,32,P-1,-2.015037715445402,False
1046,mp-1308768,Li4Mn3CoO8,32,P-1,-2.009582607632902,False
1047,mp-780881,Li4Mn3Cr3O12,22,F222,-2.397411517596656,True
1048,mp-763519,Li4Mn3Nb2Co3O16,28,P1,-2.160801291147373,False
1049,mp-756399,Li4Mn3Nb2Cr3O16,28,Cm,-2.465737302754516,False
1050,mp-768354,Li4Mn5Co3O16,28,Cm,-1.840434003678162,False
1051,mp-771545,Li4Mn5CoO12,22,C2,-1.946997855135841,False
1052,mp-885819,Li4Mn5CoO12,22,C2/m,-1.9362430764994778,False
1053,mp-1174389,Li4MnCo2O7,28,P-1,-1.852016446697455,False
1054,mp-1174393,Li4MnCo2O7,28,P-1,-1.8683082538403124,False
1055,mp-1174394,Li4MnCo2O7,28,P-1,-1.8710224256260264,False
1056,mp-1174418,Li4MnCo2O7,28,P-1,-1.8586883984831692,False
1057,mp-1174419,Li4MnCo2O7,28,P-1,-1.8395638320545973,False
1058,mp-1174421,Li4MnCo2O7,28,P-1,-1.8581630459831686,False
1059,mp-1174423,Li4MnCo2O7,28,P-1,-1.8414419641974544,False
1060,mp-1174425,Li4MnCo2O7,28,P-1,-1.8591803459831695,False
1061,mp-1174432,Li4MnCo2O7,28,P-1,-1.859709582411741,False
1062,mp-1174433,Li4MnCo2O7,28,P-1,-1.858088727054598,False
1063,mp-1174434,Li4MnCo2O7,28,P-1,-1.8555195784831693,False
1064,mp-1174441,Li4MnCo2O7,28,P-1,-1.8393286031260263,False
1065,mp-1174448,Li4MnCo2O7,28,P-1,-1.8439402288403122,False
1066,mp-1174450,Li4MnCo2O7,28,P-1,-1.8411488066974553,False
1067,mp-1174460,Li4MnCo2O7,28,P-1,-1.853326948483169,False
1068,mp-1174468,Li4MnCo2O7,28,P-1,-1.8430582281260268,False
1069,mp-1174473,Li4MnCo2O7,28,P-1,-1.8353912816974554,False
1070,mp-1174476,Li4MnCo2O7,28,P-1,-1.8474455881260263,False
1071,mp-1174503,Li4MnCo2O7,28,P-1,-1.8440634370545976,False
1072,mp-1174531,Li4MnCo2O7,28,C2/m,-1.8645544545545971,False
1073,mp-1174534,Li4MnCo2O7,28,C2/m,-1.8622509277688835,False
1074,mp-1174536,Li4MnCo2O7,28,C2/m,-1.8603145027688837,False
1075,mp-1174542,Li4MnCo2O7,28,C2/m,-1.8604159174117407,False
1076,mp-1174556,Li4MnCo2O7,28,C2/m,-1.869000143126026,False
1077,mp-1174566,Li4MnCo2O7,28,C2/m,-1.865627543126026,False
1078,mp-1174575,Li4MnCo2O7,28,C2/m,-1.8305620981260264,False
1079,mp-1174581,Li4MnCo2O7,28,C2/m,-1.8613595777688832,False
1080,mp-1174583,Li4MnCo2O7,28,P1,-1.856575841697455,False
1081,mp-1174584,Li4MnCo2O7,28,P1,-1.846030915983169,False
1082,mp-1174585,Li4MnCo2O7,28,P1,-1.8734682666974547,False
1083,mp-1174591,Li4MnCo2O7,28,P1,-1.8411584238403123,False
1084,mp-1174594,Li4MnCo2O7,28,P1,-1.848021701697455,False
1085,mp-1174598,Li4MnCo2O7,28,P1,-1.8451819781260264,False
1086,mp-1174599,Li4MnCo2O7,28,P1,-1.8546541306260258,False
1087,mp-1174602,Li4MnCo2O7,28,P1,-1.841256768126026,False
1088,mp-1174603,Li4MnCo2O7,28,P1,-1.849461108483169,False
1089,mp-1174606,Li4MnCo2O7,28,P1,-1.8383439920545979,False
1090,mp-1174607,Li4MnCo2O7,28,P1,-1.838693685268883,False
1091,mp-1174608,Li4MnCo2O7,28,P1,-1.8566099152688835,False
1092,mp-1174610,Li4MnCo2O7,28,P1,-1.836348483483169,False
1093,mp-1174611,Li4MnCo2O7,28,P1,-1.8516148574117406,False
1094,mp-1174612,Li4MnCo2O7,28,P1,-1.8463751320545978,False
1095,mp-1174614,Li4MnCo2O7,28,P1,-1.8636753466974543,False
1096,mp-1174621,Li4MnCo2O7,28,P1,-1.856105222768883,False
1097,mp-1174626,Li4MnCo2O7,28,P1,-1.841512502768884,False
1098,mp-1174628,Li4MnCo2O7,28,P1,-1.8426961370545973,False
1099,mp-1174630,Li4MnCo2O7,28,P1,-1.8300468734831685,False
1100,mp-1174631,Li4MnCo2O7,28,P1,-1.8474567945545977,False
1101,mp-1174632,Li4MnCo2O7,28,P1,-1.8451271052688836,False
1102,mp-1174644,Li4MnCo2O7,28,P1,-1.8535904541974548,False
1103,mp-1174645,Li4MnCo2O7,28,P1,-1.8446884449117402,False
1104,mp-1174670,Li4MnCo2O7,28,P1,-1.8555144424117407,False
1105,mp-1174671,Li4MnCo2O7,28,P1,-1.8569925349117409,False
1106,mp-1174672,Li4MnCo2O7,28,P1,-1.8422248416974552,False
1107,mp-1174674,Li4MnCo2O7,28,P1,-1.8361617256260263,False
1108,mp-1174682,Li4MnCo2O7,28,P1,-1.8558015645545975,False
1109,mp-1174686,Li4MnCo2O7,28,P1,-1.856354926697455,False
1110,mp-1174692,Li4MnCo2O7,28,P1,-1.8487307013403123,False
1111,mp-1174696,Li4MnCo2O7,28,P1,-1.857879769554598,False
1112,mp-1174706,Li4MnCo2O7,28,P1,-1.8306969745545973,False
1113,mp-1174760,Li4MnCo2O7,28,P1,-1.8366144577688834,False
1114,mp-1174772,Li4MnCo2O7,28,C2,-1.8300695670545974,False
1115,mp-1174773,Li4MnCo2O7,28,C2,-1.830507011697455,False
1116,mp-1174782,Li4MnCo2O7,28,C2,-1.8387554156260262,False
1117,mp-1174786,Li4MnCo2O7,28,C2,-1.87820189241174,False
1118,mp-1174793,Li4MnCo2O7,28,Cm,-1.8307461009831687,False
1119,mp-1174802,Li4MnCo2O7,28,Cm,-1.8376886527688836,False
1120,mp-1174803,Li4MnCo2O7,28,Cm,-1.832363934554598,False
1121,mp-1174806,Li4MnCo2O7,28,Cm,-1.8532046813403116,False
1122,mp-1174823,Li4MnCo2O7,28,Cm,-1.8408071959831693,False
1123,mp-1174825,Li4MnCo2O7,28,Cm,-1.843124412768883,False
1124,mp-1174836,Li4MnCo2O7,28,Cm,-1.8350565666974552,False
1125,mp-1174018,Li4MnCo3O8,32,P-1,-1.7588978522665233,False
1126,mp-1287590,Li4MnCo3O8,32,P-1,-1.7564220622665232,False
1127,mp-1177382,Li4MnCo5O12,22,C2/m,-1.7325021421029267,True
1128,mp-768594,Li4MnCrO6,48,P1,-2.2035015261470297,False
1129,mp-768620,Li4MnCrO6,48,P1,-2.203340731355364,False
1130,mp-768647,Li4MnCrO6,48,P1,-2.202383884897031,False
1131,mp-768649,Li4MnCrO6,48,C2,-2.202961725105364,False
1132,mp-768712,Li4MnCrO6,24,C2/c,-2.2412058117720304,True
1133,mp-758576,Li4Nb2V3Fe3O16,28,Cm,-2.377342039404762,False
1134,mp-762676,Li4Nb2V3Fe3O16,28,P1,-2.4164046554761893,False
1135,mp-776847,Li4Nb3V2Fe3O16,28,P1,-2.424207587261904,False
1136,mp-1177356,Li4Nb3V3(FeO8)2,28,Cm,-2.4939792886904764,False
1137,mp-861729,Li4Ti2Mn3Co3O16,28,P1,-2.1592615162068967,False
1138,mp-776663,Li4Ti2V3Fe3O16,28,Cm,-2.4617927657142866,False
1139,mp-757980,Li4Ti3Mn2Co3O16,28,Cm,-2.3296139906855493,False
1140,mp-770518,Li4Ti3Mn3(CoO8)2,28,P1,-2.406865045611659,False
1141,mp-774525,Li4Ti3Mn4(CoO9)2,62,Pmc2_1,-2.333640002582499,False
1142,mp-768109,Li4Ti3V2(Fe2O9)2,62,Pmc2_1,-2.44373713155914,False
1143,mp-772531,Li4Ti3V3(FeO8)2,28,Cm,-2.635714034761906,False
1144,mp-773674,Li4Ti3V3(FeO8)2,28,P1,-2.651771938690477,False
1145,mp-767219,Li4Ti4Mn(Co2O9)2,62,Pbam,-2.3536812470837956,False
1146,mp-774293,Li4Ti4Mn4CoO18,62,Pbam,-2.5391024067222845,False
1147,mp-767675,Li4Ti4V(Fe2O9)2,62,Pbam,-2.5417203116666665,False
1148,mp-758719,Li4V2Fe3O10,38,P-1,-2.115316492807018,False
1149,mp-758608,Li4V2Fe5O12,46,P2_1,-1.988969103188405,False
1150,mp-760208,Li4V3(FeO6)2,84,P2_1/c,-2.255769365753968,False
1151,mp-1177206,Li4V3Fe5O16,28,P1,-2.0645714619047624,False
1152,mp-772417,Li4V3Fe5O16,28,Cm,-2.065894075119047,False
1153,mp-774849,Li4V5(Fe2O9)2,62,Pbam,-2.152112940268817,False
1154,mp-850103,Li4V5(FeO6)2,46,P2_1,-2.263146309492754,False
1155,mp-776768,Li4V5Fe3O16,28,P1,-2.240926568690476,False
1156,mp-1177344,Li4VFe3O8,32,P2/m,-2.066483953333334,False
1157,mp-861490,Li5Mn2Co3O10,20,P1,-1.844858453376436,False
1158,mp-1174006,Li5Mn2CoO8,32,P-1,-2.0186011535955455,False
1159,mp-1174049,Li5Mn2CoO8,32,C2/m,-2.021182358908046,False
1160,mp-1174091,Li5Mn2CoO8,32,C2/m,-2.0069536351580455,False
1161,mp-1174098,Li5Mn2CoO8,32,C2/m,-2.0121411892205456,False
1162,mp-1174334,Li5Mn2CoO8,32,P2/m,-2.0029915295330456,False
1163,mp-1174346,Li5Mn2CoO8,32,P2/m,-2.0186022864080453,False
1164,mp-1174361,Li5Mn2CoO8,32,P-1,-2.0056253589080457,False
1165,mp-1174382,Li5Mn2CoO8,32,P1,-2.0271427773455457,False
1166,mp-1174385,Li5Mn2CoO8,32,P2,-2.030402508908046,False
1167,mp-1290640,Li5Mn2CoO8,32,P-1,-2.0095889498455453,False
1168,mp-1291385,Li5Mn2CoO8,32,P-1,-2.0085213398455455,False
1169,mp-1292609,Li5Mn2CoO8,32,P-1,-2.0000346539080454,False
1170,mp-1295190,Li5Mn2CoO8,32,C2/m,-1.9902865907830458,False
1171,mp-1297691,Li5Mn2CoO8,32,P-1,-1.988405962658046,False
1172,mp-1301686,Li5Mn2CoO8,32,P-1,-2.0069015020330454,False
1173,mp-1302354,Li5Mn2CoO8,32,P-1,-2.008901319220546,False
1174,mp-1304043,Li5Mn2CoO8,32,C2/m,-2.0176483979705457,False
1175,mp-1304644,Li5Mn2CoO8,32,P-1,-2.0089469914080453,False
1176,mp-1310376,Li5Mn2CoO8,32,P-1,-2.0150391073455456,False
1177,mp-1313101,Li5Mn2CoO8,32,P2/m,-1.9977215423455457,False
1178,mp-1314680,Li5Mn2CoO8,32,P-1,-2.0172132626580455,False
1179,mp-1320662,Li5Mn2CoO8,32,P2/m,-2.015178604845546,False
1180,mp-1222520,Li5Mn2CrO8,32,C2/m,-2.1871303626580465,False
1181,mp-753328,Li5Mn3(CoO5)2,20,P-1,-1.913783938272988,False
1182,mp-752479,Li5Mn3Cr2O10,20,P1,-2.2213016857729877,False
1183,mp-765629,Li5Mn5(CoO6)2,24,C2,-1.9657106877634096,False
1184,mp-760336,Li5Mn5CoO12,69,P1,-1.9923883701299347,False
1185,mp-770946,Li5Mn5Cr2O12,24,C2,-2.168564305263409,False
1186,mp-753261,Li5MnCr3O8,34,R-3m,-2.214424732035159,False
1187,mp-760296,Li5MnCr3O8,34,P6_3mc,-2.233003822623394,False
1188,mp-761082,Li5MnCr3O8,68,P4_32_12,-2.2350210765939815,False
1189,mp-754679,Li5V2Fe3O10,20,P-1,-2.1442921250833336,False
1190,mp-770493,Li5V2Fe5O12,24,C2,-2.028246844027778,False
1191,mp-755172,Li5V3(FeO5)2,20,P-1,-2.195548667083332,False
1192,mp-772522,Li5V5(FeO6)2,24,C2,-2.273409754027778,False
1193,mp-1174280,Li6Mn3CoO10,20,Cm,-2.001392184939655,False
1194,mp-1174282,Li6Mn3CoO10,20,Cm,-2.022250791939655,False
1195,mp-1174304,Li6Mn3CoO10,20,Cm,-2.0219242874396555,False
1196,mp-1174362,Li6Mn3CoO10,20,Cm,-2.004407855939655,False
1197,mp-1174363,Li6Mn3CoO10,20,Cm,-2.003419776939656,False
1198,mp-1174768,Li6Mn3CoO10,20,P1,-2.0494145279396547,False
1199,mp-1174770,Li6Mn3CoO10,20,P1,-2.042262949939655,False
1200,mp-1174771,Li6Mn3CoO10,20,P1,-2.057100159439655,False
1201,mp-1174775,Li6Mn3CoO10,20,P1,-2.0451142519396557,False
1202,mp-1174791,Li6Mn3CoO10,20,P1,-2.0419624794396554,False
1203,mp-1174808,Li6Mn3CoO10,20,P1,-1.9911678259396552,False
1204,mp-1174811,Li6Mn3CoO10,20,C2,-2.0425192444396556,False
1205,mp-1174816,Li6Mn3CoO10,20,P1,-2.024156423439655,False
1206,mp-1174818,Li6Mn3CoO10,20,Cm,-2.022525730439655,False
1207,mp-1174821,Li6Mn3CoO10,20,P1,-2.0176700099396543,False
1208,mp-1174822,Li6Mn3CoO10,20,P1,-2.022601382939655,False
1209,mp-1174826,Li6Mn3CoO10,20,C2,-2.0205603939396553,False
1210,mp-1174829,Li6Mn3CoO10,20,P1,-1.9913075049396554,False
1211,mp-1174830,Li6Mn3CoO10,20,P1,-1.9901806359396559,False
1212,mp-1174834,Li6Mn3CoO10,20,P1,-1.9880523084396557,False
1213,mp-1174849,Li6Mn3CoO10,20,P1,-2.0179720149396543,False
1214,mp-1232438,Li6Mn3CoO10,20,Cm,-2.0169478544396555,False
1215,mp-1641416,Li6Mn5CoO12,48,P-1,-2.0338949499856316,False
1216,mp-1666754,Li6Mn5CoO12,48,P-1,-2.0313966266522985,False
1217,mp-861128,Li6Mn5CoO12,24,P-1,-2.0393054824856325,False
1218,mp-861685,Li6Mn5CoO12,24,P-1,-2.0357217091522988,False
1219,mp-863880,Li6VFe5O12,24,C2,-1.977582878749999,False
1220,mp-864432,Li6VFe5O12,24,C2/m,-1.9674213741666666,False
1221,mp-769505,Li7Mn10Cr6O32,55,P1,-2.1501282984117025,False
1222,mp-1174467,Li7Mn2(CoO4)3,24,C2/m,-1.928134467883141,False
1223,mp-1174485,Li7Mn2(CoO4)3,24,C2/m,-1.8967984795498076,False
1224,mp-1174493,Li7Mn2(CoO4)3,24,C2/m,-1.8992429641331412,False
1225,mp-1174495,Li7Mn2(CoO4)3,24,C2/m,-1.8948915920498077,False
1226,mp-1174501,Li7Mn2(CoO4)3,24,C2/m,-1.8934248787164751,False
1227,mp-1174505,Li7Mn2(CoO4)3,24,C2/m,-1.9128516016331414,False
1228,mp-1174506,Li7Mn2(CoO4)3,24,P-1,-1.9035012024664741,False
1229,mp-1174508,Li7Mn2(CoO4)3,48,C2/m,-1.8614717441331414,False
1230,mp-1174511,Li7Mn2(CoO4)3,24,P-1,-1.8831796778831411,False
1231,mp-1174512,Li7Mn2(CoO4)3,24,P-1,-1.883422371216475,False
1232,mp-1174514,Li7Mn2(CoO4)3,24,P-1,-1.8810478382998077,False
1233,mp-1174515,Li7Mn2(CoO4)3,24,C2/m,-1.9010776266331408,False
1234,mp-1174516,Li7Mn2(CoO4)3,24,P-1,-1.8948179449664746,False
1235,mp-1174523,Li7Mn2(CoO4)3,24,P-1,-1.886085997466474,False
1236,mp-1174528,Li7Mn2(CoO4)3,48,P-1,-1.8877435914248075,False
1237,mp-1174530,Li7Mn2(CoO4)3,48,P-1,-1.8869610645498078,False
1238,mp-1174533,Li7Mn2(CoO4)3,24,P-1,-1.8819215566331409,False
1239,mp-1174535,Li7Mn2(CoO4)3,24,P-1,-1.8989947799664748,False
1240,mp-1174539,Li7Mn2(CoO4)3,24,P-1,-1.893599548716475,False
1241,mp-1174543,Li7Mn2(CoO4)3,24,P-1,-1.8858238287164746,False
1242,mp-1174545,Li7Mn2(CoO4)3,24,P-1,-1.8989578645498078,False
1243,mp-1174555,Li7Mn2(CoO4)3,24,P-1,-1.8864276616331417,False
1244,mp-1174569,Li7Mn2(CoO4)3,24,P-1,-1.8918372887164743,False
1245,mp-1174576,Li7Mn2(CoO4)3,24,P-1,-1.8905404020498076,False
1246,mp-1174622,Li7Mn2(CoO4)3,24,P-1,-1.905670101216474,False
1247,mp-1174656,Li7Mn2(CoO4)3,24,P-1,-1.8828354253831414,False
1248,mp-1174700,Li7Mn2(CoO4)3,24,P1,-1.8784418849664746,False
1249,mp-1174708,Li7Mn2(CoO4)3,24,P1,-1.8662131916331415,False
1250,mp-1174838,Li7Mn2(CoO4)3,48,P-1,-1.8694385112164742,False
1251,mp-1174854,Li7Mn2(CoO4)3,24,P-1,-1.8856297670498083,False
1252,mp-1174855,Li7Mn2(CoO4)3,24,P-1,-1.8944711791331408,False
1253,mp-1174863,Li7Mn2(CoO4)3,24,P-1,-1.8929096391331413,False
1254,mp-1174864,Li7Mn2(CoO4)3,24,P-1,-1.8936179970498082,False
1255,mp-1174868,Li7Mn2(CoO4)3,24,P-1,-1.8779225737164744,False
1256,mp-1174869,Li7Mn2(CoO4)3,48,P-1,-1.8881334828831406,False
1257,mp-1174871,Li7Mn2(CoO4)3,24,P-1,-1.8833673470498073,False
1258,mp-1174874,Li7Mn2(CoO4)3,24,P2/m,-1.9059318207998082,False
1259,mp-1174881,Li7Mn2(CoO4)3,24,P2/m,-1.8953466153831418,False
1260,mp-1174884,Li7Mn2(CoO4)3,24,P1,-1.8818425549664746,False
1261,mp-1174886,Li7Mn2(CoO4)3,24,P-1,-1.8934921620498084,False
1262,mp-1174887,Li7Mn2(CoO4)3,24,C2,-1.9106011499664752,False
1263,mp-1174891,Li7Mn2(CoO4)3,24,P2/m,-1.899966599549808,False
1264,mp-1174903,Li7Mn2(CoO4)3,24,P2/m,-1.8982504657998078,False
1265,mp-1174906,Li7Mn2(CoO4)3,24,C2,-1.8992149282998074,False
1266,mp-1174910,Li7Mn2(CoO4)3,24,C2,-1.8624468528831415,False
1267,mp-1174912,Li7Mn2(CoO4)3,24,C2,-1.905652282049808,False
1268,mp-1174918,Li7Mn2(CoO4)3,24,P1,-1.8862036066331413,False
1269,mp-1174919,Li7Mn2(CoO4)3,24,P1,-1.8961135145498076,False
1270,mp-1174920,Li7Mn2(CoO4)3,24,P1,-1.8971651328831414,False
1271,mp-1174921,Li7Mn2(CoO4)3,24,P1,-1.8973022378831417,False
1272,mp-1174922,Li7Mn2(CoO4)3,24,P1,-1.880938109549808,False
1273,mp-1174923,Li7Mn2(CoO4)3,24,P1,-1.8959883949664746,False
1274,mp-1174924,Li7Mn2(CoO4)3,24,P1,-1.8877683482998073,False
1275,mp-1174925,Li7Mn2(CoO4)3,24,P1,-1.8956408707998076,False
1276,mp-1174927,Li7Mn2(CoO4)3,24,P1,-1.8825638837164747,False
1277,mp-1174928,Li7Mn2(CoO4)3,24,P1,-1.8842024120498078,False
1278,mp-1174929,Li7Mn2(CoO4)3,24,P1,-1.8833671466331416,False
1279,mp-1174930,Li7Mn2(CoO4)3,24,P1,-1.8820813503831417,False
1280,mp-1174932,Li7Mn2(CoO4)3,24,P1,-1.8935231832998063,False
1281,mp-1174933,Li7Mn2(CoO4)3,24,P1,-1.8856039420498079,False
1282,mp-1174934,Li7Mn2(CoO4)3,24,P1,-1.8787994441331417,False
1283,mp-1174935,Li7Mn2(CoO4)3,24,P1,-1.897730454133141,False
1284,mp-1174937,Li7Mn2(CoO4)3,24,P1,-1.902838199549808,False
1285,mp-1174938,Li7Mn2(CoO4)3,24,P1,-1.861999459133142,False
1286,mp-1174939,Li7Mn2(CoO4)3,24,P1,-1.8908575349664745,False
1287,mp-1174940,Li7Mn2(CoO4)3,24,P1,-1.881387406216475,False
1288,mp-1174943,Li7Mn2(CoO4)3,24,P1,-1.905703167883141,False
1289,mp-1174949,Li7Mn2(CoO4)3,24,P1,-1.8881196999664744,False
1290,mp-1174951,Li7Mn2(CoO4)3,24,P1,-1.887428120383141,False
1291,mp-1174953,Li7Mn2(CoO4)3,24,P1,-1.8872473945498083,False
1292,mp-1174955,Li7Mn2(CoO4)3,24,P1,-1.8968377453831409,False
1293,mp-1174956,Li7Mn2(CoO4)3,24,P1,-1.888686534549808,False
1294,mp-1174963,Li7Mn2(CoO4)3,24,P1,-1.8746035982998084,False
1295,mp-1174964,Li7Mn2(CoO4)3,24,P1,-1.8672211595498076,False
1296,mp-1174972,Li7Mn2(CoO4)3,24,P1,-1.885063182049808,False
1297,mp-1174973,Li7Mn2(CoO4)3,24,P1,-1.8940594495498082,False
1298,mp-1174985,Li7Mn2(CoO4)3,24,C2,-1.8794546320498078,False
1299,mp-1174988,Li7Mn2(CoO4)3,24,P1,-1.8862541307998075,False
1300,mp-1174992,Li7Mn2(CoO4)3,24,P1,-1.8701130832998079,False
1301,mp-1174997,Li7Mn2(CoO4)3,24,P1,-1.8824633595498081,False
1302,mp-1175025,Li7Mn2(CoO4)3,24,P1,-1.8908207612164751,False
1303,mp-1175034,Li7Mn2(CoO4)3,24,P1,-1.895160833716475,False
1304,mp-1175060,Li7Mn2(CoO4)3,24,P1,-1.8654527491331414,False
1305,mp-1175063,Li7Mn2(CoO4)3,24,P1,-1.8766002753831408,False
1306,mp-1175072,Li7Mn2(CoO4)3,24,P2,-1.9018264062164747,False
1307,mp-1175073,Li7Mn2(CoO4)3,24,P2,-1.8816085141331407,False
1308,mp-1175078,Li7Mn2(CoO4)3,24,P1,-1.8679483616331414,False
1309,mp-1175081,Li7Mn2(CoO4)3,24,P2,-1.9005950678831411,False
1310,mp-1175088,Li7Mn2(CoO4)3,24,P1,-1.8642607703831409,False
1311,mp-1175089,Li7Mn2(CoO4)3,24,P2,-1.882402537049808,False
1312,mp-1175096,Li7Mn2(CoO4)3,24,Cm,-1.8611983574664748,False
1313,mp-1175107,Li7Mn2(CoO4)3,24,Pm,-1.862808158716475,False
1314,mp-1175110,Li7Mn2(CoO4)3,24,Pm,-1.8637761682998082,False
1315,mp-1649779,Li7Mn2(CoO4)3,48,P1,-1.8899808653831414,False
1316,mp-1978268,Li7Mn2(CoO4)3,48,P-1,-1.8628446297581416,False
1317,mp-1979362,Li7Mn2(CoO4)3,48,P1,-1.862607198508141,False
1318,mp-1174885,Li7Mn4CoO12,24,P1,-2.0538327881273943,False
1319,mp-1175125,Li7Mn4CoO12,48,P-1,-2.0689208195857276,False
1320,mp-1175141,Li7Mn4CoO12,48,P-1,-2.0789398200023945,False
1321,mp-1175148,Li7Mn4CoO12,48,P-1,-2.0739976816690606,False
1322,mp-1175149,Li7Mn4CoO12,24,P-1,-2.063926037294061,False
1323,mp-1175153,Li7Mn4CoO12,48,P-1,-2.061802992294061,False
1324,mp-1175158,Li7Mn4CoO12,24,P-1,-2.0646220589607274,False
1325,mp-1175159,Li7Mn4CoO12,24,P-1,-2.0557343318773946,False
1326,mp-1175160,Li7Mn4CoO12,48,P-1,-2.060303001669061,False
1327,mp-1175161,Li7Mn4CoO12,48,P-1,-2.0637564037523943,False
1328,mp-1175162,Li7Mn4CoO12,24,C2/m,-2.0712371227107282,False
1329,mp-1175164,Li7Mn4CoO12,48,P-1,-2.0364623356273945,False
1330,mp-1175169,Li7Mn4CoO12,24,P-1,-2.0618962931273948,False
1331,mp-1175170,Li7Mn4CoO12,48,P-1,-2.0410765585440607,False
1332,mp-1175171,Li7Mn4CoO12,48,P-1,-2.0379447085440616,False
1333,mp-1175172,Li7Mn4CoO12,48,P-1,-2.038535342294061,False
1334,mp-1175175,Li7Mn4CoO12,24,P-1,-2.0394418268773946,False
1335,mp-1175183,Li7Mn4CoO12,48,P-1,-2.0429760618773947,False
1336,mp-1175184,Li7Mn4CoO12,24,P1,-2.0602258831273943,False
1337,mp-1175186,Li7Mn4CoO12,24,P1,-2.0577185564607277,False
1338,mp-1175187,Li7Mn4CoO12,24,P1,-2.076792774794061,False
1339,mp-1175191,Li7Mn4CoO12,48,P-1,-2.0368625606273945,False
1340,mp-1175194,Li7Mn4CoO12,24,P1,-2.0532882472940606,False