,material_id,formula_pretty,nsites,crystal_system,formation_energy_per_atom,is_stable
3027,mp-752702,LiNbNiO4,28,Imma,-2.349977758690476,False
3028,mp-777650,LiNbNiO4,28,P4_322,-2.398190722976191,False
3029,mp-1306573,LiNbVO4,28,P-1,-2.6546519779761906,False
3030,mp-761817,LiNbVO4,28,P4_322,-2.6685053279761908,False
3031,mp-850203,LiNbVO4,28,Imma,-2.6520819054761904,False
3032,mp-1639253,LiNi2O3,24,P-1,-1.3991384663888884,False
3033,mp-1644676,LiNi2O3,24,Cc,-1.3947640234722225,False
3034,mp-757063,LiNi2O3,24,C2/c,-1.4006992338888888,False
3035,mp-1176708,LiNi2OF3,28,Pnma,-2.1589240065476187,False
3036,mp-753406,LiNi2OF3,28,R-3m,-2.157006317619047,False
3037,mp-765582,LiNi2OF3,28,Imm2,-2.1837836233333334,False
3038,mp-863383,LiNi2OF3,28,Pnma,-2.161763211904762,False
3039,mp-758931,LiNi5O3F5,28,R3m,-1.8890568316666665,False
3040,mp-753344,LiNi6O7,28,P-1,-1.279129016845238,False
3041,mp-775737,LiNi9O10,20,P-1,-1.2595629124166663,False
3042,mp-1273466,LiNiO2,32,Pmna,-1.456179272708333,False
3043,mp-1273482,LiNiO2,32,C2/c,-1.4584805823958327,False
3044,mp-1299546,LiNiO2,32,Cm,-1.4558528964583326,False
3045,mp-756446,LiNiO2,20,P-1,-1.4653593220833336,False
3046,mp-849241,LiNiO2,20,R-3m,-1.4798619360833336,False
3047,mp-850062,LiNiO2,20,P-1,-1.486724729083334,False
3048,mp-754024,LiTi2V3O10,32,P1,-2.8058372906250018,False
3049,mp-757803,LiTi2V3O12,72,P1,-2.7340215306944446,False
3050,mp-764774,LiTi2V3O12,72,P2_1/c,-2.7441802126388897,False
3051,mp-752618,LiTi2VO6,20,C2/m,-3.0427630725,False
3052,mp-774505,LiTi2VO6,40,P2_1/c,-3.062802661500001,False
3053,mp-1235238,LiTi3V5O16,25,P1,-2.7887013093333337,False
3054,mp-753531,LiTi3VO8,52,R-3m,-3.0990751069871796,False
3055,mp-1222485,LiTiFeO4,28,Pnma,-2.57662072345238,False
3056,mp-752855,LiTiFeO4,28,Imma,-2.5409419934523805,False
3057,mp-755965,LiTiFeO4,28,Imma,-2.615079870238095,False
3058,mp-770739,LiTiFeO4,28,Pnma,-2.5920639848809515,False
3059,mp-773989,LiTiFeO4,28,P4_322,-2.6041997409523807,False
3060,mp-759309,LiTiMn3O8,39,P-1,-2.2504911823430596,False
3061,mp-1301329,LiTiMnO4,28,C2/c,-2.727563142799672,False
3062,mp-774782,LiTiMnO4,28,P4_322,-2.6543407142282436,False
3063,mp-850215,LiTiMnO4,28,Imma,-2.714727585656814,False
3064,mp-773607,LiTiNiO4,28,Imma,-2.331495622738095,False
3065,mp-849731,LiTiV2O6,20,Cm,-2.738311369166668,False
3066,mp-752789,LiTiVO4,28,Imma,-2.8396633673809526,False
3067,mp-769573,LiTiVO4,42,P1,-2.8800236157142853,False
3068,mp-772042,LiTiVO4,28,Imma,-2.935502851666667,True
3069,mp-753430,LiV(OF)2,24,Pca2_1,-2.639138375555555,False
3070,mp-756551,LiV(OF)2,24,Pca2_1,-2.649589298888889,False
3071,mp-765509,LiV(OF)2,24,P2,-2.6416981243055546,False
3072,mp-765626,LiV(OF)2,24,P2_1/c,-2.712092248472222,False
3073,mp-774591,LiV18O44,63,Pm,-2.2915836268783076,False
3074,mp-760797,LiV24O58,83,P1,-2.2995571364859426,False
3075,mp-753091,LiV2O3F,28,Cc,-2.638641658333332,False
3076,mp-753294,LiV2O3F,28,Imm2,-2.6274504854761895,False
3077,mp-859784,LiV2O3F,28,Pnma,-2.62610101047619,False
3078,mp-19408,LiV2O5,32,Pnma,-2.426129368541666,False
3079,mp-627993,LiV2O5,32,Pnma,-2.381453606979166,False
3080,mp-777667,LiV2O5,32,Pnma,-2.4515515126041674,False
3081,mp-765596,LiV2O5F,36,P2_12_12,-2.4322167764814804,False
3082,mp-753681,LiV2OF5,27,P1,-3.0503792599999997,False
3083,mp-760019,LiV2OF5,27,P3,-3.050228236666667,False
3084,mp-765223,LiV2OF5,27,P1,-3.052321632962963,False
3085,mp-767433,LiV2OF5,27,P1,-3.0535131203703703,False
3086,mp-775943,LiV2OF5,27,P1,-3.0364466111111112,False
3087,mp-776389,LiV2OF5,27,P3_2,-3.04392070074074,False
3088,mp-776415,LiV2OF5,27,P1,-3.038576461481481,False
3089,mp-776420,LiV2OF5,27,P1,-3.037397581851852,False
3090,mp-776421,LiV2OF5,27,P3_121,-3.0318890040740745,False
3091,mp-776824,LiV2OF5,72,P1,-3.0364035528703703,False
3092,mp-778861,LiV2OF5,36,P1,-3.0383156675925935,False
3093,mp-778879,LiV2OF5,36,P1,-3.0355796256481486,False
3094,mp-779058,LiV2OF5,36,P1,-3.0344710717592593,False
3095,mp-849639,LiV2OF5,27,P1,-3.033247900740741,False
3096,mp-849711,LiV2OF5,36,C2,-3.037193731481482,False
3097,mp-860940,LiV2OF5,36,Cc,-3.0576961923148147,False
3098,mp-861457,LiV2OF5,36,P1,-3.036238732314815,False
3099,mp-863406,LiV2OF5,36,Pc,-3.0337019878703706,False
3100,mp-761097,LiV2OF7,22,Cm,-2.941165121666667,False
3101,mp-764752,LiV2OF7,22,Pc,-2.9310490362121224,False
3102,mp-759980,LiV3(O2F)2,40,Pnma,-2.6896665213333337,False
3103,mp-753466,LiV3(OF3)2,24,P-1,-2.972221486944443,False
3104,mp-867665,LiV3(OF3)2,24,P2_1/c,-3.0521934273611104,True
3105,mp-1176719,LiV3O3F7,28,P1,-2.892231930238094,False
3106,mp-1291989,LiV3O5F,20,P1,-2.569760606833333,False
3107,mp-758438,LiV3O5F3,24,Cc,-2.6883955994444446,False
3108,mp-764754,LiV3O5F3,24,Cc,-2.681746183194443,False
3109,mp-1176549,LiV3O6,20,P1,-2.481063828333332,False
3110,mp-27503,LiV3O8,24,P2_1/m,-2.3406944844444433,False
3111,mp-755827,LiV3O8,24,Pm,-2.3079494940277776,False
3112,mp-756858,LiV3O8,24,Pm,-2.3155780719444436,False
3113,mp-1176554,LiV3OF11,32,P1,-2.9576598333333335,False
3114,mp-1176563,LiV3OF11,32,P1,-2.9431347892708333,False
3115,mp-1176567,LiV3OF11,32,P-1,-2.952637032708333,False
3116,mp-1176596,LiV3OF11,32,P-1,-2.956297565520833,False
3117,mp-1307265,LiV3OF11,32,P1,-2.977007616770833,False
3118,mp-775901,LiV3OF11,32,P1,-2.9717140573958334,False
3119,mp-775902,LiV3OF11,32,P1,-2.967190672395833,False
3120,mp-777269,LiV3OF11,32,P2_1,-2.981265023333333,False
3121,mp-777339,LiV3OF11,32,P1,-2.956050478020833,False
3122,mp-777575,LiV3OF11,32,P1,-2.9530166414583334,False
3123,mp-850742,LiV3OF11,32,Pc,-2.958406352708333,False
3124,mp-1280709,LiV3Zn2O8,28,C2/m,-2.317537753809524,True
3125,mp-1290989,LiV3Zn2O8,28,P1,-2.313012552738095,False
3126,mp-1302478,LiV3Zn2O8,28,C2/c,-2.3171967388095234,False
3127,mp-1303832,LiV3Zn2O8,28,C2/c,-2.3157316373809516,False
3128,mp-1311636,LiV3Zn2O8,28,P1,-2.3125836002380944,False
3129,mp-776037,LiV4O10,90,P-1,-2.349773890222222,False
3130,mp-777291,LiV4O5F7,34,P1,-2.7899944199019604,False
3131,mp-779059,LiV4O5F7,34,P1,-2.797105205784313,False
3132,mp-779340,LiV4O5F7,34,P1,-2.7830974737254897,False
3133,mp-1176557,LiV4OF11,34,P-1,-3.095236385196078,False
3134,mp-1176561,LiV4OF11,34,P1,-3.1158643940196074,False
3135,mp-777640,LiV4OF11,34,C2,-3.1098343899019607,False
3136,mp-777831,LiV4OF11,34,P1,-3.123363790490196,False
3137,mp-777832,LiV4OF11,34,C2,-3.0994736028431373,False
3138,mp-777854,LiV4OF11,34,P1,-3.113095715196078,False
3139,mp-778107,LiV4OF11,34,P1,-3.121122855784314,False
3140,mp-778177,LiV4OF11,34,P1,-3.113226418137255,False
3141,mp-779025,LiV4OF11,34,P-1,-3.1112590610784316,False
3142,mp-779753,LiV4OF11,34,C2,-3.1236889137254904,False
3143,mp-779759,LiV4OF11,34,P1,-3.0994912301960786,False
3144,mp-849737,LiV4OF11,34,P-1,-3.108288566078431,False
3145,mp-1290531,LiV5O7F,28,Cm,-2.5034692605952378,False
3146,mp-1290641,LiV5O7F,28,Cm,-2.5028597948809526,False
3147,mp-1301584,LiV5O7F,28,P1,-2.503601765595238,False
3148,mp-505717,LiV6O13,40,C2/m,-2.408712077791667,False
3149,mp-542050,LiV6O13,40,P-1,-2.4125911127916666,False
3150,mp-1235037,LiV6O15,22,Cm,-2.3148312875378783,False
3151,mp-1235348,LiV6O15,22,Cm,-2.304952772992425,False
3152,mp-1235427,LiV6O15,22,Cm,-2.2785865589015155,False
3153,mp-776036,LiV6O15,88,P2_1/c,-2.3245496219696973,False
3154,mp-778176,LiV6O7F5,38,Pc,-2.7202216535964907,False
3155,mp-778623,LiV6O7F5,38,P2,-2.7189223404385965,False
3156,mp-767268,LiV9O22,64,P2_1/m,-2.305640772604166,False
3157,mp-773031,LiV9O22,64,P2_1/m,-2.300064667135416,False
3158,mp-775214,LiVCuO4,28,P4_322,-1.9064216976190471,False
3159,mp-698647,LiVO2,32,P222,-2.455909491770832,False
3160,mp-758901,LiVO2,20,P-1,-2.4435285760833336,False
3161,mp-752626,LiVO2F,20,Pnma,-2.703337322166667,False
3162,mp-19373,LiVO3,20,C2/c,-2.425375063166675,True
3163,mp-19440,LiVO3,20,C2/c,-2.4246127706666742,False
3164,mp-1290585,LiVOF2,20,P-1,-2.9632200271666678,False
3165,mp-759150,LiVOF2,20,C2/c,-2.965108354666667,False
3166,mp-759785,LiVOF2,40,P1,-2.899405675916667,False
3167,mp-760299,LiVOF2,40,Pc,-2.906105069416667,False
3168,mp-760792,LiVOF2,40,P1,-2.920055146666667,False
3169,mp-760801,LiVOF2,60,P1,-2.8940836623333337,False
3170,mp-1286464,LiVOF3,24,P1,-2.9183812909722224,False
3171,mp-1578408,LiVOF3,24,P2_1/c,-2.9514011801388893,False
3172,mp-752577,LiVOF3,24,Pnc2,-2.8963230818055568,False
3173,mp-752885,LiVOF3,24,P-1,-2.9505430334722225,False
3174,mp-755024,LiVOF3,24,P4_1,-2.9144324072222223,False
3175,mp-756068,LiVOF3,24,P2_12_12_1,-2.9369954097222224,False
3176,mp-757620,LiVOF3,24,P2_1/c,-2.96556688138889,False
3177,mp-759440,LiVOF3,24,P2_1/c,-2.9062268384722234,False
3178,mp-759672,LiVOF3,24,C2,-2.9042942847222233,False
3179,mp-764685,LiVOF3,24,Pc,-2.9594390347222226,False
3180,mp-764760,LiVOF3,24,Pna2_1,-2.964743717222223,False
3181,mp-764842,LiVOF3,24,P2_1/c,-2.9523114007638895,False
3182,mp-764845,LiVOF3,24,P2_1/c,-2.973190765555557,False
3183,mp-765498,LiVOF3,24,Pca2_1,-2.911823260972223,False
3184,mp-765521,LiVOF3,24,P4_1,-2.945458023472223,False
3185,mp-771408,LiVOF3,48,P2_12_12_1,-2.934610022013889,False
3186,mp-850913,LiVOF3,48,P1,-2.950101187222223,False
3187,mp-760189,LiVOF4,28,P1,-2.8455615490476194,False
3188,mp-1222477,LiVZnO4,42,R3,-2.28666465047619,True
3189,mp-756921,LiZn(Fe5O8)2,28,R3m,-1.6507682990476178,False
3190,mp-771993,LiZn2Fe9O16,56,Cm,-1.6882265301190469,False
3191,mp-773576,LiZn2Fe9O16,28,Cm,-1.6804867272619037,False
3192,mp-769606,LiZn4Fe13O24,42,Cm,-1.6682066374603166,False
3193,mp-771348,LiZn6Fe17O32,56,Cm,-1.658704415416666,False
3194,mp-771267,LiZnFe7O12,42,Cm,-1.692872042777777,False
3195,mp-850198,Li4Co2OF7,28,Cm,-2.6317108584523816,False
3196,mp-765689,Li4Co3(OF3)2,30,P-1,-2.4130524845555557,False
3197,mp-1174179,Li4Co3O7,28,P-1,-1.7108839327380951,False
3198,mp-1174191,Li4Co3O7,28,P-1,-1.698936476130952,False
3199,mp-1174197,Li4Co3O7,28,P-1,-1.6927211139880944,False
3200,mp-1174212,Li4Co3O7,28,P1,-1.6910682375595232,False
3201,mp-1174222,Li4Co3O7,28,C2/m,-1.6733877189880946,False
3202,mp-1174228,Li4Co3O7,28,P-1,-1.6687629097023802,False
3203,mp-1174239,Li4Co3O7,28,P-1,-1.675428398988095,False
3204,mp-1174250,Li4Co3O7,28,C2/m,-1.6919911664880942,False
3205,mp-1174257,Li4Co3O7,28,P-1,-1.659396914345237,False
3206,mp-1174269,Li4Co3O7,28,P-1,-1.6709523575595233,False
3207,mp-1174276,Li4Co3O7,28,P-1,-1.6799425097023806,False
3208,mp-1174291,Li4Co3O7,28,C2/m,-1.6974575118452375,False
3209,mp-1174298,Li4Co3O7,28,P-1,-1.6858347243452374,False
3210,mp-1174331,Li4Co3O7,28,C2/m,-1.6734177525595229,False
3211,mp-1174371,Li4Co3O7,28,C2/m,-1.6688171950595228,False
3212,mp-1174390,Li4Co3O7,28,C2/m,-1.6736387686309513,False
3213,mp-773165,Li4Co5CuO12,22,C2/m,-1.4594759210606065,False
3214,mp-759802,Li4Co5O12,42,P2_1,-1.4495636003968246,False
3215,mp-867624,Li4Co5O12,21,P1,-1.4249579849206357,False
3216,mp-752487,Li4Co7(OF7)2,27,P-1,-2.362313562345679,False
3217,mp-752803,Li4Co7(OF7)2,27,P-1,-2.3670632193827155,False
3218,mp-754571,Li4Co7(OF7)2,27,P1,-2.361471611975308,False
3219,mp-771197,Li4Co7O16,54,P2_1,-1.3605277923456787,False
3220,mp-752818,Li4Co7O3F13,27,P1,-2.2862024177160496,False
3221,mp-755064,Li4CoO3F,36,Cmc2_1,-2.092135588703704,False
3222,mp-759349,Li4CoO4,72,Pc,-1.7822843542592592,False
3223,mp-759702,Li4CoO4,36,Pnnm,-1.7777457350925927,False
3224,mp-759652,Li4CoOF4,40,I4/mmm,-2.7372887578333334,False
3225,mp-1273164,Li4CoOF5,44,P2/m,-2.686045932575757,False
3226,mp-1278660,Li4CoOF5,44,P-1,-2.689340418939394,False
3227,mp-754887,Li4CoOF5,22,C2/m,-2.708384049393939,False
3228,mp-753172,Li4Cr5O10,38,P-1,-2.324673583596492,False
3229,mp-772434,Li4CrO4,36,Cmcm,-2.1763288525925923,False
3230,mp-770688,Li4CrO5,20,C2/c,-2.057382206583334,False
3231,mp-770826,Li4CrO5,40,P-1,-2.0270355950833334,False
3232,mp-772571,Li4CrO5,20,P-1,-2.0187120935833334,False
3233,mp-758663,Li4Mn(Ni2O5)2,38,P-1,-1.5441377376981238,False
3234,mp-758487,Li4Mn2Ni5O12,46,P2_1,-1.6235567114867564,False
3235,mp-753186,Li4Mn3(NiO4)3,22,P-1,-1.7547818739602923,False
3236,mp-758591,Li4Mn3Nb2Ni3O16,28,Cm,-2.1429339613259435,False
3237,mp-758838,Li4Mn5(NiO6)2,46,P2_1,-1.929218531216891,False
3238,mp-756534,Li4Mn5Ni3O16,28,Cm,-1.7665238601067321,False
3239,mp-753964,Li4Mn5NiO12,22,C2/m,-1.934577145135841,False
3240,mp-755746,Li4MnNi5O12,22,C2/m,-1.4078931341483802,False
3241,mp-779228,Li4MnNi5O12,22,C2,-1.4152151109665612,False
3242,mp-756891,Li4Nb3Cr5O16,28,Cm,-2.539902274761904,False
3243,mp-1177461,Li4NbCo3O8,32,C2/m,-2.0464782589583335,False
3244,mp-1273584,Li4NbCo3O8,32,C2/c,-2.048262573333333,False
3245,mp-1304239,Li4NbCo3O8,32,P-1,-2.0444830717708333,False
3246,mp-756524,Li4NbCr5O12,44,C2/m,-2.4336595146969686,False
3247,mp-774904,Li4Ti(Co4O9)2,62,Pmc2_1,-1.6112475671505375,False
3248,mp-775264,Li4Ti2Co3O10,38,P-1,-2.3140826665789462,False
3249,mp-767719,Li4Ti2Mn3Ni3O16,28,Cm,-2.1215089276354684,False
3250,mp-771120,Li4Ti3Cr5O16,28,Cm,-2.6977659858333323,False
3251,mp-770507,Li4Ti3Mn3(NiO8)2,28,Cm,-2.3934257273973722,False
3252,mp-861696,Li4Ti4Cr5O18,62,Pbam,-2.710281733118279,False
3253,mp-767054,Li4Ti4Mn4NiO18,62,Pbam,-2.5428548988190576,False
3254,mp-1177251,Li4Ti5Co3O16,28,P1,-2.6801867503571435,False
3255,mp-776297,Li4Ti5Co3O16,28,Cm,-2.675372506428571,False
3256,mp-777464,Li4Ti5Cr3O16,28,Cm,-2.9478854167857134,False
3257,mp-1275013,Li4TiCo3O8,32,P-1,-2.0762468529166656,False
3258,mp-1277669,Li4TiCo3O8,32,C2/c,-2.0507320613541653,False
3259,mp-1293153,Li4TiCo3O8,32,P1,-2.0546443041666658,False
3260,mp-1297766,Li4TiCo3O8,32,P1,-2.077010418854166,False
3261,mp-1307386,Li4TiCo3O8,32,C2/c,-2.066022661979166,False
3262,mp-756719,Li4TiCo3O8,32,C2/m,-2.0684108432291657,False
3263,mp-803628,Li4TiCo3O8,32,P-1,-2.0664167866666654,False
3264,mp-1639499,Li4TiCo5O12,44,P1,-1.8716024743939386,False
3265,mp-1640620,Li4TiCo5O12,44,P-1,-1.8119646280303023,False
3266,mp-1641494,Li4TiCo5O12,44,C2/m,-1.8592145021212112,False
3267,mp-1643720,Li4TiCo5O12,44,C2/c,-1.8488918600757567,False
3268,mp-1645230,Li4TiCo5O12,44,C2/m,-1.8721703355303019,False
3269,mp-1645697,Li4TiCo5O12,44,C2,-1.8462243118939392,False
3270,mp-1646154,Li4TiCo5O12,44,P1,-1.8492652621212111,False
3271,mp-1647689,Li4TiCo5O12,44,C2,-1.8092994487121208,False
3272,mp-1667834,Li4TiCo5O12,44,C2,-1.8088404168939383,False
3273,mp-1978851,Li4TiCo5O12,44,C2/c,-1.858209092803029,False
3274,mp-770955,Li4TiCo5O12,22,C2/m,-1.8450061603030292,False
3275,mp-759597,Li4TiCr5O12,66,P-1,-2.4520838327272725,False
3276,mp-771327,Li4TiCr5O12,22,C2/m,-2.4266465393939383,False
3277,mp-1653381,Li4TiCrO6,48,P2_1/c,-2.6011602563888885,False
3278,mp-753412,Li4TiCrO6,48,C2/c,-2.5991098959722216,False
3279,mp-768386,Li4TiCrO6,48,P1,-2.602929678055555,False
3280,mp-768387,Li4TiCrO6,48,P1,-2.6037531882638887,False
3281,mp-768403,Li4TiCrO6,48,C2,-2.597954798055555,False
3282,mp-768404,Li4TiCrO6,48,C2/c,-2.5992485915972217,False
3283,mp-768438,Li4TiCrO6,48,P1,-2.6014472353472216,False
3284,mp-756514,Li4Y3CrO8,64,C222,-2.9824720263020827,False
3285,mp-760135,Li5(CoO2)4,68,P1,-1.6538163506862744,False
3286,mp-765274,Li5(CoO2)8,29,P1,-1.4925039529885056,False
3287,mp-766589,Li5(CoO2)8,58,P1,-1.538735323505747,False
3288,mp-752862,Li5Co2Cu3O10,20,P-1,-1.5045550400833327,False
3289,mp-771177,Li5Co2Cu5O12,24,C2,-1.3800408336111112,False
3290,mp-771191,Li5Co7O16,56,P2_1,-1.4747118345238093,False
3291,mp-849472,Li5Co7O3F13,28,P1,-2.3539474193452383,False
3292,mp-754280,Li5CoO4,20,Aea2,-1.9165073981666652,False
3293,mp-760147,Li5CoO4,80,Pbca,-1.919076385166666,False
3294,mp-773454,Li5CoO4,40,Pnnm,-1.879167949666666,False
3295,mp-779022,Li5CoO4,80,Pbca,-1.8688247455416664,False
3296,mp-752884,Li5CoOF5,24,P4/mmm,-2.815672282222222,False
3297,mp-850339,Li5CoOF5,48,P3m1,-2.8130691547222226,False
3298,mp-754233,Li5CrO5,44,C2,-2.077513656969698,False
3299,mp-850209,Li5Mn(Ni2O5)2,20,P-1,-1.6560697594798846,False
3300,mp-754927,Li5Mn2Ni3O10,20,P-1,-1.8342231558764368,False
3301,mp-771232,Li5Mn2Ni5O12,24,C2,-1.7177345446886967,False
3302,mp-1222526,Li5Mn2NiO8,32,C2/m,-1.977335054845546,False
3303,mp-755837,Li5Mn3(NiO5)2,20,P-1,-1.906515322772988,False
3304,mp-774245,Li5Mn5(NiO6)2,24,C2,-1.9728776444300766,False
3305,mp-757125,Li5Nb2Co3O10,20,P-1,-2.2156854435833333,False
3306,mp-755029,Li5Nb2Co5O12,24,C2,-2.049740671944443,False
3307,mp-761142,Li5Ti2Co3O10,20,P1,-2.3526163749166664,False
3308,mp-763447,Li5Ti2Co5O12,24,C2,-2.1050024343055553,False
3309,mp-761081,Li6Co11(OF12)2,43,P1,-2.3980862652325587,False
3310,mp-764088,Li6Co2OF11,20,P1,-2.62113708625,False
3311,mp-18925,Li6CoO4,44,P4_2/nmc,-1.9372024220454553,True
3312,mp-759438,Li6CoOF6,28,I4/mmm,-2.865863798392857,False
3313,mp-770694,Li6Cr2O7,30,P2_1/c,-2.1653302191666675,False
3314,mp-770871,Li6Cr2O7,30,P2/c,-2.154079919166667,False
3315,mp-781691,Li6Cr5O12,46,P2_1,-2.23931231826087,False
3316,mp-772552,Li6CrO4,22,P4_2/nmc,-1.9860297463636363,False
3317,mp-753796,Li6CrO6,26,Cc,-1.992285807307692,False
3318,mp-760956,Li6Mn5Ni3O16,30,Cm,-1.8621523976551715,False
3319,mp-758650,Li6MnNi7O16,60,P-1,-1.452632761597701,False
3320,mp-759369,Li6MnNi7O16,60,P1,-1.4508473334310348,False
3321,mp-772994,Li6Ti15Co3O32,56,R3m,-3.046832796785715,False
3322,mp-774674,Li6Ti7Cr5O24,42,P-1,-2.9435744717460315,False
3323,mp-849470,Li7Co(O2F)2,28,P1,-2.196307213095238,False
3324,mp-759770,Li7Co(OF)3,28,P1,-2.3355413345238083,False
3325,mp-1174196,Li7Co5O12,24,C2/m,-1.7326407501388867,False
3326,mp-1174223,Li7Co5O12,24,P-1,-1.7036562451388886,False
3327,mp-1174229,Li7Co5O12,24,P-1,-1.6949221909722212,False
3328,mp-1174246,Li7Co5O12,24,P-1,-1.7432399838888888,False
3329,mp-1174265,Li7Co5O12,24,P-1,-1.705533520555555,False
3330,mp-1174266,Li7Co5O12,24,P-1,-1.6717198034722216,False
3331,mp-1174271,Li7Co5O12,24,P-1,-1.7071452405555547,False
3332,mp-1174274,Li7Co5O12,24,C2/m,-1.7068483218055555,False
3333,mp-1174292,Li7Co5O12,24,P-1,-1.699269734305555,False
3334,mp-1174293,Li7Co5O12,24,P-1,-1.664716854722221,False
3335,mp-1174305,Li7Co5O12,24,P-1,-1.6819788851388882,False
3336,mp-1174313,Li7Co5O12,24,P-1,-1.7115733843055547,False
3337,mp-1174315,Li7Co5O12,24,P-1,-1.6983077759722214,False
3338,mp-1174345,Li7Co5O12,24,C2/m,-1.660657367638888,False
3339,mp-1174364,Li7Co5O12,24,P-1,-1.6669554955555554,False
3340,mp-1174365,Li7Co5O12,24,C2/m,-1.6890513326388887,False
3341,mp-1174366,Li7Co5O12,24,P-1,-1.6997990509722218,False
3342,mp-1174374,Li7Co5O12,24,P-1,-1.6952078459722213,False
3343,mp-1174377,Li7Co5O12,24,C2/m,-1.7136473359722213,False
3344,mp-1174384,Li7Co5O12,24,P-1,-1.6599878447222214,False
3345,mp-1174391,Li7Co5O12,24,P2/m,-1.7149682397222203,False
3346,mp-1174401,Li7Co5O12,24,C2/m,-1.6887674001388884,False
3347,mp-1174403,Li7Co5O12,24,P2/m,-1.7045434680555545,False
3348,mp-1174431,Li7Co5O12,24,P2/m,-1.7037798305555552,False
3349,mp-1174439,Li7Co5O12,24,P2/m,-1.6669277693055544,False
3350,mp-1174494,Li7Co5O12,48,P-1,-1.6935253788888882,False
3351,mp-1174804,Li7Co5O12,24,P-1,-1.6808332230555554,False
3352,mp-1638688,Li7Co5O12,24,C2,-1.726370453055555,False
3353,mp-1640700,Li7Co5O12,48,P2/m,-1.7411667580555548,False
3354,mp-1648494,Li7Co5O12,48,C2,-1.736568834513888,False
3355,mp-1651230,Li7Co5O12,48,P1,-1.6938960013888884,False
3356,mp-1653728,Li7Co5O12,48,P2,-1.7174002726388882,False
3357,mp-1666632,Li7Co5O12,48,P1,-1.689409599097221,False
3358,mp-1979024,Li7Co5O12,48,P-1,-1.6821862757638886,False
3359,mp-770769,Li7Co5O12,24,C2,-1.660581452638888,False
3360,mp-771155,Li7Co5O12,24,C2/m,-1.7552962176388884,False
3361,mp-765549,Li7CoOF7,64,Pmm2,-2.8640239967708334,False
3362,mp-757087,Li7Cr5O12,24,C2/m,-2.295887370972222,False
3363,mp-771074,Li7CrO6,28,Cc,-2.0715090223809516,False
3364,mp-1638660,Li8(CoO2)5,23,P1,-1.7068369857246377,False
3365,mp-1640123,Li8(CoO2)5,46,P-1,-1.706110575724638,False
3366,mp-1641030,Li8(CoO2)5,46,P-1,-1.704643351376811,False
3367,mp-1646718,Li8(CoO2)5,46,P-1,-1.7009759755072456,False
3368,mp-752627,Li8(CoO2)5,46,P-1,-1.7048992126811586,False
3369,mp-759827,Li8Co(O2F)2,60,P-1,-2.1818872592777776,False
3370,mp-760331,Li8Co(O2F)2,30,Cmc2_1,-2.1758350091111107,False