,material_id,formula_pretty,nsites,crystal_system,formation_energy_per_atom,is_stable
1341,mp-1175195,Li7Mn4CoO12,24,P1,-2.0689663722940614,False
1342,mp-1175198,Li7Mn4CoO12,24,P1,-2.067069177294061,False
1343,mp-1175199,Li7Mn4CoO12,24,P1,-2.061143055210728,False
1344,mp-1175201,Li7Mn4CoO12,24,P1,-2.042739437294061,False
1345,mp-1175202,Li7Mn4CoO12,24,P1,-2.0410602710440613,False
1346,mp-1175203,Li7Mn4CoO12,24,P1,-2.059899138960727,False
1347,mp-1175204,Li7Mn4CoO12,48,P-1,-2.047763223335727,False
1348,mp-1175206,Li7Mn4CoO12,24,P1,-2.0618698110440605,False
1349,mp-1175214,Li7Mn4CoO12,24,P1,-2.067107590210727,False
1350,mp-1175215,Li7Mn4CoO12,24,P1,-2.0486036510440613,False
1351,mp-1175216,Li7Mn4CoO12,24,P1,-2.0441216218773945,False
1352,mp-1175217,Li7Mn4CoO12,24,P1,-2.061140981877395,False
1353,mp-1175219,Li7Mn4CoO12,24,P1,-2.063854065627394,False
1354,mp-1175221,Li7Mn4CoO12,24,P1,-2.0462794181273942,False
1355,mp-1175222,Li7Mn4CoO12,24,P1,-2.059373979377394,False
1356,mp-1175226,Li7Mn4CoO12,24,P1,-2.062210365627395,False
1357,mp-1175230,Li7Mn4CoO12,24,P1,-2.060671455210727,False
1358,mp-1175239,Li7Mn4CoO12,24,P1,-2.054196673544061,False
1359,mp-1175243,Li7Mn4CoO12,24,P1,-2.034037995627395,False
1360,mp-1175244,Li7Mn4CoO12,24,P1,-2.0414980064607278,False
1361,mp-1175245,Li7Mn4CoO12,24,P1,-2.0556885114607275,False
1362,mp-1175246,Li7Mn4CoO12,24,P1,-2.052172701460728,False
1363,mp-1175251,Li7Mn4CoO12,24,P1,-2.0094902152107275,False
1364,mp-1175252,Li7Mn4CoO12,24,P1,-2.038950789794061,False
1365,mp-1175253,Li7Mn4CoO12,24,P1,-2.038125673960728,False
1366,mp-1175254,Li7Mn4CoO12,24,P1,-2.0194646897940607,False
1367,mp-1175255,Li7Mn4CoO12,24,P1,-2.0147487072940606,False
1368,mp-1175256,Li7Mn4CoO12,24,P1,-2.039363753544061,False
1369,mp-1175259,Li7Mn4CoO12,24,P1,-2.038847555627394,False
1370,mp-1175262,Li7Mn4CoO12,24,P1,-2.009700413127394,False
1371,mp-1175263,Li7Mn4CoO12,24,P1,-2.036513901460727,False
1372,mp-1175264,Li7Mn4CoO12,24,P1,-2.0415344768773935,False
1373,mp-1175265,Li7Mn4CoO12,24,C2,-2.0543336631273945,False
1374,mp-1175268,Li7Mn4CoO12,48,C2/m,-2.0681748075023947,False
1375,mp-1175269,Li7Mn4CoO12,24,C2,-2.078083388960728,False
1376,mp-1175270,Li7Mn4CoO12,24,C2,-2.0412584693773943,False
1377,mp-1175271,Li7Mn4CoO12,48,P2/m,-2.0355023660440614,False
1378,mp-1175272,Li7Mn4CoO12,24,P2,-2.0579982335440605,False
1379,mp-1175273,Li7Mn4CoO12,24,P1,-2.0060757693773943,False
1380,mp-1175274,Li7Mn4CoO12,24,P2,-2.053253335210728,False
1381,mp-1175275,Li7Mn4CoO12,48,P2/m,-2.069367942710727,False
1382,mp-1175276,Li7Mn4CoO12,24,P1,-2.006427214377394,False
1383,mp-1175277,Li7Mn4CoO12,24,C2/m,-2.0385514168773944,False
1384,mp-1175278,Li7Mn4CoO12,24,C2/m,-2.038929409377394,False
1385,mp-1175279,Li7Mn4CoO12,24,C2/m,-2.041921420627394,False
1386,mp-1175280,Li7Mn4CoO12,48,C2/m,-2.040515043335727,False
1387,mp-1175281,Li7Mn4CoO12,24,C2/m,-2.041265273544061,False
1388,mp-1175283,Li7Mn4CoO12,24,P1,-2.015665845210728,False
1389,mp-1175284,Li7Mn4CoO12,24,Cm,-2.0249215043773945,False
1390,mp-1175285,Li7Mn4CoO12,24,P1,-2.003544801877394,False
1391,mp-1175286,Li7Mn4CoO12,24,P1,-2.016373353127394,False
1392,mp-1175287,Li7Mn4CoO12,24,P1,-2.0116446068773945,False
1393,mp-1175288,Li7Mn4CoO12,24,Cm,-2.0422938085440605,False
1394,mp-1175289,Li7Mn4CoO12,24,P1,-2.004881636877394,False
1395,mp-1175290,Li7Mn4CoO12,48,C2/m,-2.0402380904190607,False
1396,mp-1175291,Li7Mn4CoO12,24,P1,-2.015166801877394,False
1397,mp-1175292,Li7Mn4CoO12,24,P2/m,-2.0359537535440615,False
1398,mp-1175293,Li7Mn4CoO12,24,P2/m,-2.0167671122940605,False
1399,mp-1175294,Li7Mn4CoO12,24,Cm,-2.0374644268773943,False
1400,mp-1175295,Li7Mn4CoO12,24,Cm,-2.038672596044061,False
1401,mp-1175296,Li7Mn4CoO12,24,Cm,-2.0400656610440606,False
1402,mp-1175297,Li7Mn4CoO12,24,P1,-2.00666832729406,False
1403,mp-1175298,Li7Mn4CoO12,24,Pm,-2.0083798677107274,False
1404,mp-1175300,Li7Mn4CoO12,24,Pm,-2.0360761489607277,False
1405,mp-1175301,Li7Mn4CoO12,24,P1,-2.015090288127394,False
1406,mp-1175302,Li7Mn4CoO12,24,Pm,-2.0357011397940616,False
1407,mp-1175303,Li7Mn4CoO12,24,Pm,-2.0079862635440606,False
1408,mp-1175304,Li7Mn4CoO12,24,Cm,-2.0058627602107273,False
1409,mp-1175305,Li7Mn4CoO12,24,Cm,-2.0397116268773936,False
1410,mp-1175307,Li7Mn4CoO12,24,Pm,-2.0242919343773935,False
1411,mp-1175309,Li7Mn4CoO12,24,Pm,-2.0280037297940603,False
1412,mp-1175311,Li7Mn4CoO12,24,Cm,-2.0330225652107274,False
1413,mp-1175312,Li7Mn4CoO12,24,Cm,-1.9999385185440606,False
1414,mp-1175320,Li7Mn4CoO12,24,Pm,-2.017871243960728,False
1415,mp-1175348,Li7Mn4CoO12,24,Cm,-2.0230421452107272,False
1416,mp-1175352,Li7Mn4CoO12,24,Cm,-2.0281369610440607,False
1417,mp-1639368,Li7Mn4CoO12,48,P-1,-2.0673462302107275,False
1418,mp-1639391,Li7Mn4CoO12,48,C2/m,-2.067672152919061,False
1419,mp-1639498,Li7Mn4CoO12,48,P-1,-2.037842999377394,False
1420,mp-1639755,Li7Mn4CoO12,48,C2/m,-2.038782410835728,False
1421,mp-1640193,Li7Mn4CoO12,48,P-1,-2.0347868660440604,False
1422,mp-1640232,Li7Mn4CoO12,48,P-1,-2.0377075141690604,False
1423,mp-1640528,Li7Mn4CoO12,48,C2/m,-2.039471704169061,False
1424,mp-1641094,Li7Mn4CoO12,48,P-1,-2.0393548183357275,False
1425,mp-1641408,Li7Mn4CoO12,24,P-1,-2.0589831277107273,False
1426,mp-1642922,Li7Mn4CoO12,48,C2/m,-2.064643794585727,False
1427,mp-1643277,Li7Mn4CoO12,48,P-1,-2.0599332502107273,False
1428,mp-1643524,Li7Mn4CoO12,48,C2/m,-2.0714778602107273,False
1429,mp-1645043,Li7Mn4CoO12,48,P-1,-2.0673600679190614,False
1430,mp-1645663,Li7Mn4CoO12,48,P-1,-2.0365847216690605,False
1431,mp-1647854,Li7Mn4CoO12,48,P-1,-2.037524149377395,False
1432,mp-1650226,Li7Mn4CoO12,48,P-1,-2.07645987541906,False
1433,mp-1650471,Li7Mn4CoO12,48,C2,-2.0712513066690605,False
1434,mp-1650552,Li7Mn4CoO12,48,C2/m,-2.0650147400023946,False
1435,mp-1651188,Li7Mn4CoO12,48,P1,-2.075029526252395,False
1436,mp-1651930,Li7Mn4CoO12,48,P1,-2.036026534377394,False
1437,mp-1653341,Li7Mn4CoO12,48,P2,-2.0749095143773943,False
1438,mp-1666304,Li7Mn4CoO12,48,Cm,-2.042581081044061,False
1439,mp-1666320,Li7Mn4CoO12,48,P-1,-2.0573497591690604,False
1440,mp-1666339,Li7Mn4CoO12,24,P1,-2.0794093522940607,False
1441,mp-1666476,Li7Mn4CoO12,48,P-1,-2.0671271381273946,False
1442,mp-1666595,Li7Mn4CoO12,48,P-1,-2.0337478341690614,False
1443,mp-1667041,Li7Mn4CoO12,48,C2/m,-2.081016989585727,False
1444,mp-1667092,Li7Mn4CoO12,48,Pm,-2.0361516956273946,False
1445,mp-1667122,Li7Mn4CoO12,48,P1,-2.072690348752394,False
1446,mp-1667712,Li7Mn4CoO12,48,P-1,-2.0605239481273947,False
1447,mp-1977420,Li7Mn4CoO12,48,P-1,-2.0346608193773945,False
1448,mp-1977436,Li7Mn4CoO12,48,P1,-2.0602302300023942,False
1449,mp-1977559,Li7Mn4CoO12,48,C2/m,-2.033149502294061,False
1450,mp-775158,Li8Mn13Cr3O32,56,C2/m,-2.1252792401744673,False
1451,mp-770529,Li8Mn15CrO32,56,P1,-2.0790747584934315,False
1452,mp-1100592,Li9Mn2Co5O16,32,Pm,-1.8260707164331897,False
1453,mp-1100595,Li9Mn2Co5O16,32,Pm,-1.8107751989331895,False
1454,mp-1100596,Li9Mn2Co5O16,32,Pm,-1.8208940717456894,False
1455,mp-1100604,Li9Mn2Co5O16,32,Pm,-1.81344529330819,False
1456,mp-1100605,Li9Mn2Co5O16,32,Pm,-1.8192347289331892,False
1457,mp-1100606,Li9Mn2Co5O16,32,Pm,-1.8204525542456897,False
1458,mp-1100609,Li9Mn2Co5O16,32,Pm,-1.8116786879956894,False
1459,mp-1100612,Li9Mn2Co5O16,32,Pm,-1.8078923426831892,False
1460,mp-1100613,Li9Mn2Co5O16,32,Pm,-1.8195064676831896,False
1461,mp-1100642,Li9Mn2Co5O16,32,Cm,-1.8072419736206893,False
1462,mp-1100653,Li9Mn2Co5O16,32,Cm,-1.8071121348706898,False
1463,mp-1100654,Li9Mn2Co5O16,32,Cm,-1.8256700020581897,False
1464,mp-1100662,Li9Mn2Co5O16,32,Cm,-1.8112642104956898,False
1465,mp-1100667,Li9Mn2Co5O16,32,Cm,-1.8249071123706893,False
1466,mp-1100670,Li9Mn2Co5O16,32,Cm,-1.8144444404956896,False
1467,mp-1100671,Li9Mn2Co5O16,32,Cm,-1.8207601320581892,False
1468,mp-1100673,Li9Mn2Co5O16,32,Cm,-1.8235061748706896,False
1469,mp-1100676,Li9Mn2Co5O16,32,Cm,-1.8077169111206892,False
1470,mp-1100677,Li9Mn2Co5O16,32,Cm,-1.8197932173706892,False
1471,mp-1100678,Li9Mn2Co5O16,32,Cm,-1.8257941086206895,False
1472,mp-1100680,Li9Mn2Co5O16,32,Cm,-1.8325136233081896,False
1473,mp-1100681,Li9Mn2Co5O16,32,Cm,-1.8118355898706895,False
1474,mp-1100682,Li9Mn2Co5O16,32,Cm,-1.81211383143319,False
1475,mp-1100683,Li9Mn2Co5O16,32,Cm,-1.8365700176831892,False
1476,mp-1100684,Li9Mn2Co5O16,32,Cm,-1.8253151704956894,False
1477,mp-1100685,Li9Mn2Co5O16,32,Cm,-1.8137998558081891,False
1478,mp-1100686,Li9Mn2Co5O16,32,Cm,-1.8229660183081897,False
1479,mp-1100688,Li9Mn2Co5O16,32,Cm,-1.830685643620689,False
1480,mp-1100696,Li9Mn2Co5O16,32,P2/m,-1.8347558664331896,False
1481,mp-1100697,Li9Mn2Co5O16,32,P2/m,-1.8141607795581898,False
1482,mp-1100699,Li9Mn2Co5O16,32,P2/m,-1.8423025133081898,False
1483,mp-1100700,Li9Mn2Co5O16,32,P2/m,-1.8139858064331893,False
1484,mp-1100701,Li9Mn2Co5O16,32,P2/m,-1.8122213642456897,False
1485,mp-1100702,Li9Mn2Co5O16,32,P2/m,-1.8544812336206897,False
1486,mp-1100714,Li9Mn2Co5O16,32,P2/m,-1.8394214286206898,False
1487,mp-1100715,Li9Mn2Co5O16,32,P2/m,-1.8513083592456896,False
1488,mp-1100716,Li9Mn2Co5O16,32,P2/m,-1.80963066549569,False
1489,mp-1100718,Li9Mn2Co5O16,32,P2/m,-1.8144011714331896,False
1490,mp-1100719,Li9Mn2Co5O16,32,P2/m,-1.8317820186206895,False
1491,mp-1100720,Li9Mn2Co5O16,32,P2/m,-1.80868299705819,False
1492,mp-1100723,Li9Mn2Co5O16,32,P2/m,-1.8071590523706895,False
1493,mp-1100729,Li9Mn2Co5O16,32,P2/m,-1.8212751789331891,False
1494,mp-1100734,Li9Mn2Co5O16,32,P2/m,-1.8377468792456897,False
1495,mp-1100737,Li9Mn2Co5O16,32,P2/m,-1.8346389061206896,False
1496,mp-1100740,Li9Mn2Co5O16,32,C2/m,-1.8153945264331899,False
1497,mp-1100741,Li9Mn2Co5O16,32,C2/m,-1.8078014858081897,False
1498,mp-1100756,Li9Mn2Co5O16,32,Cm,-1.8230442401831892,False
1499,mp-1100758,Li9Mn2Co5O16,32,Cm,-1.8074426726831891,False
1500,mp-1100760,Li9Mn2Co5O16,32,Cm,-1.8164574979956898,False
1501,mp-1175386,Li9Mn2Co5O16,32,P-1,-1.8146565295581896,False
1502,mp-1175387,Li9Mn2Co5O16,32,P-1,-1.8351621333081898,False
1503,mp-1175391,Li9Mn2Co5O16,32,P-1,-1.8324655479956897,False
1504,mp-1175393,Li9Mn2Co5O16,32,P-1,-1.8445853433081894,False
1505,mp-1175395,Li9Mn2Co5O16,32,C2/m,-1.84440241768319,False
1506,mp-1175403,Li9Mn2Co5O16,32,P-1,-1.8306286008081898,False
1507,mp-1175406,Li9Mn2Co5O16,32,P-1,-1.8278700698706896,False
1508,mp-1175407,Li9Mn2Co5O16,32,P-1,-1.8290438648706893,False
1509,mp-1175408,Li9Mn2Co5O16,32,P-1,-1.8359163579956892,False
1510,mp-1175411,Li9Mn2Co5O16,32,P-1,-1.8133763220581898,False
1511,mp-1175417,Li9Mn2Co5O16,32,P-1,-1.8291730186206898,False
1512,mp-1175421,Li9Mn2Co5O16,32,P-1,-1.8324245101831895,False
1513,mp-1175422,Li9Mn2Co5O16,32,P-1,-1.8227001298706895,False
1514,mp-1175424,Li9Mn2Co5O16,32,P-1,-1.8337766826831894,False
1515,mp-1175425,Li9Mn2Co5O16,32,P-1,-1.8289466889331898,False
1516,mp-1175431,Li9Mn2Co5O16,32,P-1,-1.8451331583081894,False
1517,mp-1175432,Li9Mn2Co5O16,32,P-1,-1.8444782301831895,False
1518,mp-1175438,Li9Mn2Co5O16,32,P-1,-1.8459409123706898,False
1519,mp-1175441,Li9Mn2Co5O16,32,P-1,-1.8462707717456892,False
1520,mp-1175453,Li9Mn2Co5O16,32,P-1,-1.8467911195581896,False
1521,mp-1175454,Li9Mn2Co5O16,32,P-1,-1.8275381061206897,False
1522,mp-1175461,Li9Mn2Co5O16,32,P-1,-1.8355681814331897,False
1523,mp-1175470,Li9Mn2Co5O16,32,P-1,-1.8268906654956893,False
1524,mp-1175474,Li9Mn2Co5O16,32,C2/m,-1.8541598751831891,False
1525,mp-1175481,Li9Mn2Co5O16,32,P-1,-1.8250166211206897,False
1526,mp-1175484,Li9Mn2Co5O16,32,P-1,-1.8334749645581896,False
1527,mp-1175489,Li9Mn2Co5O16,32,P-1,-1.8276806386206896,False
1528,mp-1175494,Li9Mn2Co5O16,32,P-1,-1.84249421643319,False
1529,mp-1175510,Li9Mn2Co5O16,32,P-1,-1.8286834373706897,False
1530,mp-1175518,Li9Mn2Co5O16,32,P-1,-1.8341383489331893,False
1531,mp-1175526,Li9Mn2Co5O16,32,P-1,-1.8300984801831897,False
1532,mp-1175530,Li9Mn2Co5O16,32,P-1,-1.8260149967456893,False
1533,mp-1175532,Li9Mn2Co5O16,32,P-1,-1.8240538348706892,False
1534,mp-1175533,Li9Mn2Co5O16,32,P-1,-1.8272477604956894,False
1535,mp-1175544,Li9Mn2Co5O16,32,P-1,-1.8227956573706896,False
1536,mp-1175545,Li9Mn2Co5O16,32,P1,-1.8368055436206898,False
1537,mp-1175547,Li9Mn2Co5O16,32,P1,-1.8315617933081896,False
1538,mp-1175550,Li9Mn2Co5O16,32,P-1,-1.8080359458081894,False
1539,mp-1175551,Li9Mn2Co5O16,32,P1,-1.8248136308081895,False
1540,mp-1175553,Li9Mn2Co5O16,32,P-1,-1.8233433979956892,False
1541,mp-1175554,Li9Mn2Co5O16,32,P-1,-1.8173804808081897,False
1542,mp-1175557,Li9Mn2Co5O16,32,P1,-1.8325161704956896,False
1543,mp-1175560,Li9Mn2Co5O16,32,P1,-1.8327353901831893,False
1544,mp-1175561,Li9Mn2Co5O16,32,P-1,-1.8225649573706892,False
1545,mp-1175562,Li9Mn2Co5O16,32,P1,-1.84343445612069,False
1546,mp-1175563,Li9Mn2Co5O16,32,P-1,-1.8173111711206893,False
1547,mp-1175566,Li9Mn2Co5O16,32,P-1,-1.8356760689331892,False
1548,mp-1175567,Li9Mn2Co5O16,32,P1,-1.8340947261206892,False
1549,mp-1175568,Li9Mn2Co5O16,32,P1,-1.844637735651939,False
1550,mp-1175570,Li9Mn2Co5O16,32,P-1,-1.8291232533081896,False
1551,mp-1175575,Li9Mn2Co5O16,32,P-1,-1.8293526711206898,False
1552,mp-1175576,Li9Mn2Co5O16,32,P-1,-1.8342100823706895,False
1553,mp-1175578,Li9Mn2Co5O16,32,P1,-1.8416495083081896,False
1554,mp-1175580,Li9Mn2Co5O16,32,P-1,-1.8322563414331894,False
1555,mp-1175583,Li9Mn2Co5O16,32,P1,-1.8268965001831896,False
1556,mp-1175590,Li9Mn2Co5O16,32,P1,-1.8286205626831897,False
1557,mp-1175591,Li9Mn2Co5O16,32,P-1,-1.827273611120689,False
1558,mp-1175593,Li9Mn2Co5O16,32,P1,-1.8325812395581895,False
1559,mp-1175595,Li9Mn2Co5O16,32,P-1,-1.8152922748706892,False
1560,mp-1175597,Li9Mn2Co5O16,32,P1,-1.8238954583081899,False
1561,mp-1175598,Li9Mn2Co5O16,32,P-1,-1.8204469545581894,False
1562,mp-1175599,Li9Mn2Co5O16,32,P1,-1.8379350398706897,False
1563,mp-1175601,Li9Mn2Co5O16,32,P-1,-1.8297828439331898,False
1564,mp-1175603,Li9Mn2Co5O16,32,P-1,-1.8284471608081896,False
1565,mp-1175604,Li9Mn2Co5O16,32,P1,-1.8367796092456894,False
1566,mp-1175607,Li9Mn2Co5O16,32,P-1,-1.8235178089331896,False
1567,mp-1175609,Li9Mn2Co5O16,32,P1,-1.8341217208081897,False
1568,mp-1175611,Li9Mn2Co5O16,32,P-1,-1.8493900011206899,False
1569,mp-1175612,Li9Mn2Co5O16,32,P-1,-1.8269948370581899,False
1570,mp-1175616,Li9Mn2Co5O16,32,P1,-1.8261804067456895,False
1571,mp-1175617,Li9Mn2Co5O16,32,P1,-1.8377463604956894,False
1572,mp-1175621,Li9Mn2Co5O16,32,P1,-1.8464202261206895,False
1573,mp-1175622,Li9Mn2Co5O16,32,P1,-1.8439522454956894,False
1574,mp-1175624,Li9Mn2Co5O16,32,P-1,-1.8316223942456897,False
1575,mp-1175627,Li9Mn2Co5O16,32,P1,-1.84161915237069,False
1576,mp-1175628,Li9Mn2Co5O16,32,P-1,-1.844827111120689,False
1577,mp-1175629,Li9Mn2Co5O16,32,P-1,-1.8104742204956894,False
1578,mp-1175631,Li9Mn2Co5O16,32,P1,-1.8187343333081891,False
1579,mp-1175632,Li9Mn2Co5O16,32,C2,-1.8180741973706898,False
1580,mp-1175633,Li9Mn2Co5O16,32,P-1,-1.8210273220581898,False
1581,mp-1175635,Li9Mn2Co5O16,32,C2,-1.8261108779956894,False
1582,mp-1175637,Li9Mn2Co5O16,32,P1,-1.85154951205819,False
1583,mp-1175640,Li9Mn2Co5O16,32,P-1,-1.8181534711206897,False
1584,mp-1175642,Li9Mn2Co5O16,32,C2,-1.8577896839331896,False
1585,mp-1175644,Li9Mn2Co5O16,32,C2,-1.8372541808081895,False
1586,mp-1175647,Li9Mn2Co5O16,32,C2,-1.8374229098706891,False
1587,mp-1175650,Li9Mn2Co5O16,32,C2,-1.8306317711206894,False
1588,mp-1175651,Li9Mn2Co5O16,32,C2,-1.8344011792456891,False
1589,mp-1175653,Li9Mn2Co5O16,32,P1,-1.8266645570581899,False
1590,mp-1175654,Li9Mn2Co5O16,32,C2,-1.8304228270581895,False
1591,mp-1175658,Li9Mn2Co5O16,32,C2,-1.8240786117456897,False
1592,mp-1175660,Li9Mn2Co5O16,32,P-1,-1.8075068636206897,False
1593,mp-1175661,Li9Mn2Co5O16,32,P1,-1.8064553104956893,False
1594,mp-1175663,Li9Mn2Co5O16,32,P1,-1.8383240048706897,False
1595,mp-1175664,Li9Mn2Co5O16,32,P-1,-1.8316866545581894,False
1596,mp-1175666,Li9Mn2Co5O16,32,P-1,-1.8066864236206897,False
1597,mp-1175667,Li9Mn2Co5O16,32,C2,-1.8105363064331899,False
1598,mp-1175669,Li9Mn2Co5O16,32,P1,-1.8430551761206893,False
1599,mp-1175670,Li9Mn2Co5O16,32,P1,-1.8268841936206899,False
1600,mp-1175672,Li9Mn2Co5O16,32,C2,-1.8411036983081894,False
1601,mp-1175674,Li9Mn2Co5O16,32,P-1,-1.8112993529956896,False
1602,mp-1175676,Li9Mn2Co5O16,32,P-1,-1.8096041289331897,False
1603,mp-1175681,Li9Mn2Co5O16,32,P-1,-1.813253894870689,False
1604,mp-1175683,Li9Mn2Co5O16,32,P-1,-1.8080197351831897,False
1605,mp-1175684,Li9Mn2Co5O16,32,P2,-1.8580719783081898,False
1606,mp-1175685,Li9Mn2Co5O16,32,P1,-1.8067068264331896,False
1607,mp-1175687,Li9Mn2Co5O16,32,P-1,-1.8150389917456895,False
1608,mp-1175688,Li9Mn2Co5O16,32,P1,-1.8353692667456896,False
1609,mp-1175691,Li9Mn2Co5O16,32,P1,-1.8513129789331897,False
1610,mp-1175694,Li9Mn2Co5O16,32,P-1,-1.8239890604956894,False
1611,mp-1175705,Li9Mn2Co5O16,32,P1,-1.8471633236206895,False
1612,mp-1175707,Li9Mn2Co5O16,32,P-1,-1.8298990692456893,False
1613,mp-1175708,Li9Mn2Co5O16,32,P1,-1.8462287142456892,False
1614,mp-1175710,Li9Mn2Co5O16,32,P1,-1.8243851317456894,False
1615,mp-1175711,Li9Mn2Co5O16,32,P1,-1.8199625264331898,False
1616,mp-1175712,Li9Mn2Co5O16,32,P1,-1.83953792674569,False
1617,mp-1175715,Li9Mn2Co5O16,32,P1,-1.8344479533081897,False
1618,mp-1175716,Li9Mn2Co5O16,32,C2,-1.8326530220581896,False
1619,mp-1175720,Li9Mn2Co5O16,32,P-1,-1.810439632683189,False
1620,mp-1175721,Li9Mn2Co5O16,32,P-1,-1.8106105992456891,False
1621,mp-1175722,Li9Mn2Co5O16,32,P1,-1.8156761048706898,False
1622,mp-1175724,Li9Mn2Co5O16,32,P1,-1.8515996967456898,False
1623,mp-1175725,Li9Mn2Co5O16,32,P1,-1.8333535770581895,False
1624,mp-1175727,Li9Mn2Co5O16,32,P1,-1.8355240408081892,False
1625,mp-1175728,Li9Mn2Co5O16,32,P1,-1.8492248692456892,False
1626,mp-1175732,Li9Mn2Co5O16,32,P-1,-1.8414895292456892,False
1627,mp-1175734,Li9Mn2Co5O16,32,P1,-1.8092495539331894,False
1628,mp-1175736,Li9Mn2Co5O16,32,P1,-1.8329167564331899,False
1629,mp-1175737,Li9Mn2Co5O16,32,P1,-1.8353570242456891,False
1630,mp-1175743,Li9Mn2Co5O16,32,C2,-1.8380311439331898,False
1631,mp-1175745,Li9Mn2Co5O16,32,P-1,-1.8092047342456894,False
1632,mp-1175746,Li9Mn2Co5O16,32,P1,-1.8393275545581895,False
1633,mp-1175748,Li9Mn2Co5O16,32,C2,-1.8324783873706894,False
1634,mp-1175749,Li9Mn2Co5O16,32,P-1,-1.8177410067456892,False
1635,mp-1175750,Li9Mn2Co5O16,32,P1,-1.8286396483081893,False
1636,mp-1175753,Li9Mn2Co5O16,32,P1,-1.8278253139331895,False
1637,mp-1175755,Li9Mn2Co5O16,32,C2,-1.83395758768319,False
1638,mp-1175757,Li9Mn2Co5O16,32,C2,-1.8353406929956897,False
1639,mp-1175764,Li9Mn2Co5O16,32,P1,-1.8501569592456892,False
1640,mp-1175766,Li9Mn2Co5O16,32,P1,-1.8130505311206893,False
1641,mp-1175768,Li9Mn2Co5O16,32,P1,-1.8150282104956892,False
1642,mp-1175769,Li9Mn2Co5O16,32,P1,-1.8346778158081891,False
1643,mp-1175775,Li9Mn2Co5O16,32,P1,-1.8266398839331899,False
1644,mp-1175777,Li9Mn2Co5O16,32,P-1,-1.8097428829956899,False
1645,mp-1175778,Li9Mn2Co5O16,32,P1,-1.8286357895581897,False
1646,mp-1175779,Li9Mn2Co5O16,32,P1,-1.82688601643319,False
1647,mp-1175780,Li9Mn2Co5O16,32,C2,-1.8287040014331897,False
1648,mp-1175781,Li9Mn2Co5O16,32,P1,-1.8234956583081896,False
1649,mp-1175783,Li9Mn2Co5O16,32,P1,-1.8295011170581894,False
1650,mp-1175784,Li9Mn2Co5O16,32,P1,-1.8471437548706895,False
1651,mp-1175785,Li9Mn2Co5O16,32,P1,-1.8434990173706893,False
1652,mp-1175786,Li9Mn2Co5O16,32,P1,-1.8252920333081892,False
1653,mp-1175790,Li9Mn2Co5O16,32,P1,-1.8347316645581895,False
1654,mp-1175791,Li9Mn2Co5O16,32,P1,-1.8321415704956898,False
1655,mp-1175794,Li9Mn2Co5O16,32,P1,-1.8548944064331891,False
1656,mp-1175797,Li9Mn2Co5O16,32,P1,-1.8090402933081897,False
1657,mp-1175801,Li9Mn2Co5O16,32,P-1,-1.8187765661206896,False
1658,mp-1175803,Li9Mn2Co5O16,32,P1,-1.8266348170581894,False
1659,mp-1175806,Li9Mn2Co5O16,32,P1,-1.8237216620581895,False
1660,mp-1175812,Li9Mn2Co5O16,32,P1,-1.8327778098706897,False
1661,mp-1175822,Li9Mn2Co5O16,32,P1,-1.8368483329956895,False
1662,mp-1175830,Li9Mn2Co5O16,32,P1,-1.82639607143319,False
1663,mp-1175834,Li9Mn2Co5O16,32,P-1,-1.8090302339331892,False
1664,mp-1175836,Li9Mn2Co5O16,32,P-1,-1.8268715051831892,False
1665,mp-1175838,Li9Mn2Co5O16,32,P1,-1.8180379951831895,False
1666,mp-1175840,Li9Mn2Co5O16,32,P1,-1.8223977714331898,False