,material_id,formula_pretty,nsites,crystal_system,formation_energy_per_atom,is_stable
2001,mp-776749,Li2V3CuO8,28,Cc,-2.2054424151190477,False
2002,mp-887127,Li2V3CuO8,56,P4_32_12,-2.2318906269047623,False
2003,mp-764201,Li2V3O3F5,26,Cm,-2.880401658589743,False
2004,mp-1272159,Li2V3O6,22,C2,-2.4569570006060597,False
2005,mp-1272908,Li2V3O6,22,P-1,-2.4596228537878786,False
2006,mp-1274319,Li2V3O6,22,P1,-2.4611615433333327,False
2007,mp-1274518,Li2V3O6,22,C2,-2.451495493787878,False
2008,mp-1276577,Li2V3O6,22,P-1,-2.458245398787878,False
2009,mp-1276849,Li2V3O6,22,C2/m,-2.4560914674242413,False
2010,mp-1281163,Li2V3O6,22,C2,-2.458116200151515,False
2011,mp-1286964,Li2V3O6,22,P-1,-2.4608139928787875,False
2012,mp-752965,Li2V3O6,22,C2/m,-2.4685370283333326,False
2013,mp-762271,Li2V3O6,22,C2/m,-2.459130457878787,False
2014,mp-772164,Li2V3O7,72,P31c,-2.427347383125,False
2015,mp-770899,Li2V3O8,26,P4bm,-2.3557126858974367,False
2016,mp-772205,Li2V3O8,52,P4_332,-2.352933088397436,False
2017,mp-773325,Li2V3O8,52,P2_12_12_1,-2.3996682683974364,False
2018,mp-1570811,Li2V5CuO12,20,C2,-2.277212676833332,False
2019,mp-1275592,Li2V5O10,34,P1,-2.451529922745099,False
2020,mp-1291398,Li2V5O10,34,P-1,-2.449848743333333,False
2021,mp-1297854,Li2V5O10,34,P-1,-2.453780336274509,False
2022,mp-1305526,Li2V5O10,34,P-1,-2.4518156056862743,False
2023,mp-1309309,Li2V5O10,34,P-1,-2.452328800392156,False
2024,mp-762287,Li2V5O10,34,P-1,-2.453060570686275,False
2025,mp-776130,Li2V5O12,76,Pbcn,-2.436456271666666,False
2026,mp-555660,Li2V6O13,21,C2/m,-2.42463564829365,False
2027,mp-27751,Li2V6O15,23,C2/m,-2.367015003876812,False
2028,mp-755630,Li2V6O15,23,C2/m,-2.363018548659421,False
2029,mp-1177758,Li2VO2F,30,Cm,-2.6255238506944445,False
2030,mp-1177759,Li2VO2F,24,P1,-2.6467602656944447,False
2031,mp-1272911,Li2VO2F,24,P-1,-2.661242446944445,False
2032,mp-1273426,Li2VO2F,24,P2_1/m,-2.691690329444445,False
2033,mp-1274092,Li2VO2F,24,P-1,-2.6641795261111123,False
2034,mp-1275346,Li2VO2F,24,P2/m,-2.6335730536111117,False
2035,mp-1278467,Li2VO2F,24,P-1,-2.6588718815277783,False
2036,mp-1290831,Li2VO2F,24,P-1,-2.6622248211111117,False
2037,mp-1301550,Li2VO2F,24,P1,-2.6509349823611115,False
2038,mp-752588,Li2VO2F,24,Cm,-2.624188739444445,False
2039,mp-753043,Li2VO2F,24,Pm,-2.6250601606944453,False
2040,mp-753189,Li2VO2F,24,Cm,-2.6173286915277783,False
2041,mp-753438,Li2VO2F,24,C2,-2.652665876944445,False
2042,mp-758805,Li2VO2F,24,C2/m,-2.666618909861111,False
2043,mp-758858,Li2VO2F,24,C2/m,-2.6637647202777788,False
2044,mp-759067,Li2VO2F,24,Cmmm,-2.6341644490277782,False
2045,mp-759139,Li2VO2F,24,P1,-2.6190550215277786,False
2046,mp-759482,Li2VO2F,24,C2/m,-2.656681407777778,False
2047,mp-762922,Li2VO2F,24,Cm,-2.622936372777779,False
2048,mp-763051,Li2VO2F,24,P-3m1,-2.7118905736111114,False
2049,mp-763174,Li2VO2F,24,Cm,-2.618713088194445,False
2050,mp-763177,Li2VO2F,24,P1,-2.620968408611112,False
2051,mp-763193,Li2VO2F,30,P1,-2.6222423103611114,False
2052,mp-763198,Li2VO2F,24,Cm,-2.617728582361112,False
2053,mp-763347,Li2VO2F,24,Cmcm,-2.652814824444445,False
2054,mp-777412,Li2VO2F,24,P2_1/m,-2.6682875777777784,False
2055,mp-777778,Li2VO2F,24,C2,-2.650241829444445,False
2056,mp-772563,Li2VO2F3,32,Pnma,-2.737292186145833,False
2057,mp-774192,Li2VO3,24,P-1,-2.4751547636111115,False
2058,mp-861577,Li2VO3,24,C2/m,-2.473737233611111,False
2059,mp-761092,Li2VO3F,28,Cc,-2.545713954523809,False
2060,mp-761101,Li2VO3F,28,P1,-2.550673731309524,False
2061,mp-1293011,Li2VOF3,28,P1,-2.96337659952381,False
2062,mp-753093,Li2VOF3,28,C2/m,-2.9730504909523816,False
2063,mp-765507,Li2VOF3,28,P4_1,-2.988316552380953,False
2064,mp-767622,Li2VOF3,28,Pnc2,-2.9434202741666673,False
2065,mp-1177748,Li2VOF4,32,C2/c,-3.0213838330208334,False
2066,mp-1298606,Li2VOF4,32,P2_1,-3.028200958333333,False
2067,mp-1312877,Li2VOF4,32,P1,-3.028140741458333,False
2068,mp-759716,Li2VOF4,32,Pm,-2.9388943461458337,False
2069,mp-761271,Li2VOF4,32,P1,-3.015476630520834,False
2070,mp-764837,Li2VOF4,32,P1,-2.9636243027083338,False
2071,mp-765589,Li2VOF4,32,P2_12_12_1,-2.9682694286458333,False
2072,mp-765622,Li2VOF4,32,Pna2_1,-2.970573185833333,False
2073,mp-757198,Li2VOF5,27,P3_1,-2.9353550596296296,False
2074,mp-1177753,Li3(FeO3)2,22,C2/c,-1.6646273531818165,False
2075,mp-1276910,Li3(FeO3)2,22,C2,-1.661032374090908,False
2076,mp-1286090,Li3(FeO3)2,22,P2/m,-1.659437111363635,False
2077,mp-1305099,Li3(FeO3)2,22,P-1,-1.663826831363636,False
2078,mp-753133,Li3(FeO3)2,22,P-1,-1.6556574986363637,False
2079,mp-755242,Li3(FeO3)2,22,Pnn2,-1.6384643254545457,False
2080,mp-760809,Li3(FeO3)2,66,C2/c,-1.6641554262121208,False
2081,mp-1311345,Li3(NiO2)5,36,P1,-1.243623520277778,False
2082,mp-758803,Li3(NiO2)5,36,P1,-1.2429747841666665,False
2083,mp-694965,Li3(NiO2)8,27,P-1,-1.0651765907407407,False
2084,mp-850218,Li35(FeO4)8,75,P1,-1.933387862888888,False
2085,mp-1177736,Li3Cu2Ni5O12,66,P1,-1.2007520469696966,False
2086,mp-755329,Li3Fe(OF)2,32,P2/c,-2.4885411353124995,False
2087,mp-761203,Li3Fe10O7F9,29,P1,-2.088202354310344,False
2088,mp-1177694,Li3Fe2OF5,22,P1,-2.606887258181818,False
2089,mp-773547,Li3Fe2OF5,22,C2,-2.6111145286363637,False
2090,mp-1299455,Li3Fe3O8,28,C2/c,-1.6021831824999992,False
2091,mp-1308681,Li3Fe3O8,28,C2/c,-1.6008880339285707,False
2092,mp-764593,Li3Fe3OF7,28,Cc,-2.634382313928571,False
2093,mp-586092,Li3Fe5O8,64,Cmcm,-1.7761481428124997,False
2094,mp-770655,Li3Fe5O9,34,C2/c,-1.796270953088235,False
2095,mp-779353,Li3Fe5OF11,20,P1,-2.5971689552500004,False
2096,mp-758878,Li3Fe8O3F13,27,Cm,-2.401571688703704,False
2097,mp-777187,Li3Fe9O5F11,28,P1,-2.224620825892857,False
2098,mp-849473,Li3Fe9O5F11,28,P1,-2.2419315673214277,False
2099,mp-849603,Li3Fe9O5F11,28,P1,-2.2203003683928566,False
2100,mp-761233,Li3FeO2F,28,Pnnm,-2.1815312071428568,False
2101,mp-1663732,Li3FeO3,28,Cmmm,-1.9344134649999998,False
2102,mp-770885,Li3FeO3,28,P2_1/c,-1.9437147478571422,False
2103,mp-770886,Li3FeO3,28,Pnma,-1.9667335853571422,False
2104,mp-771894,Li3FeO3,28,P4_2/mnm,-1.9388966417857136,False
2105,mp-1276702,Li3FeO4,32,Immm,-1.7575736443749994,False
2106,mp-1282942,Li3FeO4,32,C2/m,-1.7598363631249994,False
2107,mp-849528,Li3FeO4,32,I-43m,-1.8023653512499989,False
2108,mp-752488,Li3FeOF3,32,Imma,-2.64783955125,False
2109,mp-753308,Li3Mn(OF)2,32,P2/c,-2.5923056328663803,False
2110,mp-753602,Li3Mn(OF)2,32,Cmmm,-2.63740619474138,False
2111,mp-765992,Li3Mn(OF)2,32,Cc,-2.56491808536638,False
2112,mp-705636,Li3Mn10O20,66,Cm,-1.9005340467972835,False
2113,mp-1177832,Li3Mn28O56,87,C2,-1.8299185003686085,False
2114,mp-757232,Li3Mn2CuO6,24,C2/m,-1.8967473254885057,False
2115,mp-1173945,Li3Mn2O5,20,C2/m,-2.1165602518362063,False
2116,mp-1173947,Li3Mn2O5,20,P-1,-2.147383765336207,False
2117,mp-1173952,Li3Mn2O5,20,C2/m,-2.1470781328362065,False
2118,mp-1173961,Li3Mn2O5,20,P-1,-2.116023373336206,False
2119,mp-1173962,Li3Mn2O5,20,P-1,-2.148224041836207,False
2120,mp-1173964,Li3Mn2O5,20,C2/m,-2.115726920836207,False
2121,mp-1173969,Li3Mn2O5,20,P-1,-2.1236878378362065,False
2122,mp-1173972,Li3Mn2O5,20,P-1,-2.1117475488362074,False
2123,mp-1173991,Li3Mn2O5,20,P-1,-2.110832867836207,False
2124,mp-1174008,Li3Mn2O5,20,P-1,-2.119653308336207,False
2125,mp-1174015,Li3Mn2O5,20,C2/m,-2.1218715488362063,False
2126,mp-1174036,Li3Mn2O5,20,C2/m,-2.105893377336206,False
2127,mp-1174068,Li3Mn2O5,20,C2/m,-2.118690213336207,False
2128,mp-753322,Li3Mn3O3F5,28,Cm,-2.6476703741995076,False
2129,mp-756538,Li3Mn3O8,28,P6_3mc,-1.929096075628079,False
2130,mp-758802,Li3Mn3O8,56,C2,-1.9367679688423647,False
2131,mp-770608,Li3Mn3O8,56,P4_332,-1.9747000802709362,False
2132,mp-761165,Li3Mn3OF7,28,R3m,-2.851560170985221,False
2133,mp-1080207,Li3Mn4O8,30,C2/m,-2.0530572337816086,False
2134,mp-1177617,Li3Mn4O8,30,P-1,-2.0631446707816092,False
2135,mp-1177674,Li3Mn4O8,60,P1,-2.0630614247816084,False
2136,mp-1289284,Li3Mn4O8,30,C2/m,-2.068143564781608,False
2137,mp-1305278,Li3Mn4O8,30,C2/c,-2.063604868114942,False
2138,mp-753674,Li3Mn4O8,30,C2/m,-2.093466010448276,False
2139,mp-760821,Li3Mn4O8,30,P1,-2.055524191781609,False
2140,mp-765459,Li3Mn4O8,30,P-1,-2.062509143114943,False
2141,mp-849464,Li3Mn5(CuO6)2,22,C2,-1.7965924063479626,False
2142,mp-754023,Li3Mn5OF11,20,P1,-2.866233821232759,False
2143,mp-760153,Li3Mn5OF11,20,P1,-2.8746531417327597,False
2144,mp-1177687,Li3Mn7O12,66,P1,-2.0296537691901784,False
2145,mp-770710,Li3Mn7O16,26,R3m,-1.8839929329045093,False
2146,mp-1661801,Li3Mn8(OF3)4,27,P-1,-2.6764582223499365,False
2147,mp-763504,Li3Mn8(OF3)4,27,C2/m,-2.673717022720307,False
2148,mp-1222562,Li3Mn8O16,27,P-4m2,-1.9715601519795651,False
2149,mp-531365,Li3Mn8O16,54,Pmmn,-1.9829662771647518,False
2150,mp-780417,Li3MnNb4O12,20,P1,-2.7950369303965514,False
2151,mp-754219,Li3MnO3,28,P2_1/c,-2.0463498807758613,False
2152,mp-756408,Li3MnO3,28,P4_2/mnm,-2.099130762204432,False
2153,mp-770556,Li3MnO3,84,P321,-2.045537517085386,False
2154,mp-764778,Li3MnO4,32,I-43m,-1.9792646697413794,False
2155,mp-773121,Li3Nb2VO6,48,C2/m,-2.5329831789583324,False
2156,mp-756149,Li3Nb4FeO12,20,P1,-2.7376435134999992,False
2157,mp-756616,Li3Nb4NiO12,20,P1,-2.6905734609999996,False
2158,mp-753504,Li3Nb4VO12,20,P1,-2.807936900999999,False
2159,mp-757382,Li3NbNi3O8,30,C2/m,-1.8660212346666658,False
2160,mp-1295016,Li3NbV2O6,24,P-1,-2.493536173333334,False
2161,mp-1302141,Li3NbV2O6,24,P-1,-2.4931110041666673,False
2162,mp-754904,Li3NbV2O6,24,C2/m,-2.464652388333334,False
2163,mp-1304724,Li3NbV3O8,30,P1,-2.5131468599999995,False
2164,mp-769967,Li3NbV3O8,30,C2/m,-2.516818389333333,False
2165,mp-1290913,Li3Ni(OF)2,32,C2/c,-2.2441974165625,False
2166,mp-761272,Li3Ni(OF)2,32,P2/c,-2.2486989171874994,False
2167,mp-753703,Li3Ni2O2F3,20,I4/mmm,-2.3515920172499998,False
2168,mp-753329,Li3Ni3OF7,28,R3m,-2.4928454857142848,False
2169,mp-758143,Li3Ni5O8,48,C2/m,-1.414610158333333,False
2170,mp-753724,Li3Ni5OF11,20,P1,-2.4094561587500003,False
2171,mp-765345,Li3Ni5OF11,20,P1,-2.4076837982500003,False
2172,mp-1177647,Li3Ni7O12,66,P1,-1.214328066060606,False
2173,mp-759452,Li3Ni8(OF3)4,27,C2/m,-2.105590885555555,False
2174,mp-753400,Li3NiO2F,28,Pnnm,-2.038246495357143,False
2175,mp-773516,Li3NiO3,28,P4_2/mnm,-1.7144002317857132,False
2176,mp-752550,Li3NiOF3,32,P4/mmm,-2.6311006831249997,False
2177,mp-1275017,Li3Ti(NiO3)2,24,P-1,-2.1522835836111107,False
2178,mp-774353,Li3Ti(NiO3)2,24,C2/m,-2.1519650627777764,False
2179,mp-1290956,Li3Ti2(NiO4)2,30,P-1,-2.395336942111111,False
2180,mp-753035,Li3Ti2Mn3O10,36,P-1,-2.5774420544699868,False
2181,mp-758512,Li3Ti2Mn5O12,66,P1,-2.443699907863113,False
2182,mp-756623,Li3Ti2MnO6,24,C2/m,-2.769650278299809,False
2183,mp-752510,Li3Ti2V3O10,36,P-1,-2.7995948839814813,False
2184,mp-1177731,Li3Ti2V5O12,66,P1,-2.648169317121213,False
2185,mp-1304492,Li3Ti3VO8,60,C2/m,-2.9163890786666666,False
2186,mp-1315810,Li3Ti3VO8,30,P2_1/m,-2.9194329693333327,False
2187,mp-752665,Li3Ti3VO8,30,C2/m,-2.9418815333333326,False
2188,mp-755163,Li3TiFe3O8,30,R-3m,-2.223353201555555,False
2189,mp-758622,Li3TiFe3O8,30,P1,-2.1857166682222213,False
2190,mp-760345,Li3TiFe3O8,30,P6_3mc,-2.222920715555555,False
2191,mp-1292456,Li3TiMn2O6,24,P-1,-2.4837873015996164,False
2192,mp-1304450,Li3TiMn2O6,24,C2/m,-2.475265400766283,False
2193,mp-1304913,Li3TiMn2O6,24,Cm,-2.4769811007662828,False
2194,mp-755233,Li3TiMn3O8,30,P-1,-2.3785169984750962,False
2195,mp-759205,Li3TiMn3O8,45,P-1,-2.385020573586207,False
2196,mp-765565,Li3TiMn3O8,30,Cc,-2.3746729974750953,False
2197,mp-1273456,Li3TiMn4O8,32,P-1,-2.342162318128592,False
2198,mp-1292671,Li3TiMn4O8,32,P-1,-2.3435640068785926,False
2199,mp-1307881,Li3TiMn4O8,32,P-1,-2.345115555941092,False
2200,mp-1303223,Li3TiNi3O8,30,C2/c,-1.8855940355555552,False
2201,mp-1305541,Li3TiNi3O8,30,P-1,-1.884804050555555,False
2202,mp-1306670,Li3TiNi3O8,30,P-1,-1.8843848442222215,False
2203,mp-758244,Li3TiNi3O8,30,C2/m,-1.883623012888888,False
2204,mp-1273419,Li3TiV2O6,24,P1,-2.6567965986111126,False
2205,mp-1275879,Li3TiV2O6,24,Cm,-2.6564387915277785,False
2206,mp-759411,Li3TiV2O6,24,C2/m,-2.6503220961111125,False
2207,mp-754081,Li3TiV3O8,30,Cm,-2.631192143555556,False
2208,mp-756307,Li3TiV3O8,30,R-3m,-2.6706326698888887,False
2209,mp-757012,Li3TiV3O8,30,P6_3mc,-2.6504628548888887,False
2210,mp-753080,Li3V(OF)2,32,Cmmm,-2.7489442021874995,False
2211,mp-772492,Li3V12O29,44,Cm,-2.3708487033522725,False
2212,mp-1567267,Li3V2(O2F)2,22,P2_1/m,-2.6908162250000007,False
2213,mp-1567479,Li3V2(O2F)2,22,P2_1/m,-2.700428953181819,False
2214,mp-1572353,Li3V2(O2F)2,22,P2_1/m,-2.6991156268181826,False
2215,mp-759102,Li3V2(O2F)2,44,P1,-2.6600540045454553,False
2216,mp-759243,Li3V2(O2F)2,22,C2/m,-2.6791920336363635,False
2217,mp-759574,Li3V2(O2F)2,22,P-1,-2.6933916822727273,False
2218,mp-759687,Li3V2(O2F)2,44,Cm,-2.654686070000001,False
2219,mp-759833,Li3V2(O2F)2,33,Pm,-2.6847317622727274,False
2220,mp-759955,Li3V2(O2F)2,44,P1,-2.6584259902272733,False
2221,mp-759979,Li3V2(O2F)2,44,P2,-2.6578899870454546,False
2222,mp-760013,Li3V2(O2F)2,33,C2,-2.6563879243939392,False
2223,mp-760064,Li3V2(O2F)2,44,P1,-2.6631723175000004,False
2224,mp-760200,Li3V2(O2F)2,33,C2/m,-2.672501552272727,False
2225,mp-760221,Li3V2(O2F)2,44,P1,-2.6594106413636367,False
2226,mp-761180,Li3V2(O2F)2,33,P1,-2.6839561413636366,False
2227,mp-761181,Li3V2(O2F)2,44,P1,-2.666019042954545,False
2228,mp-761182,Li3V2(O2F)2,33,P1,-2.683951662575758,False
2229,mp-764397,Li3V2(O2F)2,22,P2_1/m,-2.6862093068181823,False
2230,mp-764424,Li3V2(O2F)2,33,P1,-2.684916473181818,False
2231,mp-764429,Li3V2(O2F)2,33,P-1,-2.6724184992424243,False
2232,mp-765943,Li3V2(O2F)2,44,P-1,-2.6923027154545465,False
2233,mp-765357,Li3V2(OF)3,22,R3m,-2.792942168181817,False
2234,mp-754864,Li3V2(OF)4,26,P2_1,-2.7176691199999996,False
2235,mp-776500,Li3V2(OF)4,26,P1,-2.7360995669230763,False
2236,mp-1177621,Li3V24O58,85,P1,-2.3374120713529405,False
2237,mp-752612,Li3V2OF7,26,Cm,-3.080272145384616,False
2238,mp-759089,Li3V3O3F5,28,Cm,-2.8194348732142864,False
2239,mp-759132,Li3V3O5F3,28,Cm,-2.721626196785715,False
2240,mp-765189,Li3V3O5F3,28,P1,-2.712769552142858,False
2241,mp-1177493,Li3V3O8,28,Imm2,-2.4213360260714287,False
2242,mp-778106,Li3V4(OF3)3,38,P1,-2.9533589247368424,False
2243,mp-778178,Li3V4(OF3)3,38,P1,-2.9491754881578958,False
2244,mp-778208,Li3V4(OF3)3,76,P1,-2.9569411632894735,False
2245,mp-778244,Li3V4(OF3)3,38,P1,-2.9519500928947373,False
2246,mp-779062,Li3V4(OF3)3,38,P1,-2.9499536486842115,False
2247,mp-849712,Li3V4(OF3)3,38,P1,-2.95600068868421,False
2248,mp-756355,Li3V4CuO12,20,C2,-2.2473043935000008,False
2249,mp-1275559,Li3V4O8,30,P1,-2.4598974993333322,False
2250,mp-1284801,Li3V4O8,30,C2/m,-2.4634848923333323,False
2251,mp-1289227,Li3V4O8,30,C2/c,-2.462334918666666,False
2252,mp-1302334,Li3V4O8,30,P-1,-2.464168133999999,False
2253,mp-1307896,Li3V4O8,30,C2/c,-2.4624806056666673,False
2254,mp-762265,Li3V5O10,36,P-1,-2.4665184041666666,False
2255,mp-767752,Li3V5O10,36,C2/c,-2.449692295277779,False
2256,mp-1177476,Li3V5O12,20,P1,-2.4177559159999986,False
2257,mp-1289331,Li3V5O12,20,C2,-2.442140076999999,False
2258,mp-752821,Li3V5O12,20,P1,-2.413641932499999,False
2259,mp-776224,Li3V5O12,80,P2_1/c,-2.4576029378749995,False
2260,mp-755775,Li3V5O14,22,P31m,-2.2842791488636363,False
2261,mp-542665,Li3V6O13,22,Cm,-2.417389911704546,False
2262,mp-756397,Li3V6O16,25,Pm,-2.375938175199999,False
2263,mp-752640,Li3V7O12,22,C2,-2.4282100872727272,False
2264,mp-1177632,Li3V8O11,22,C2/m,-2.241282524204546,False
2265,mp-1177934,Li3V8O16,54,P1,-2.458033101111112,False
2266,mp-1222531,Li3V8ZnO16,28,P-4m2,-2.432289374642856,False
2267,mp-758195,Li3VO3F,32,P-1,-2.615335044375,False
2268,mp-764730,Li3VO3F,32,C2/c,-2.6126781853125,False
2269,mp-764860,Li3VO3F,32,P-1,-2.5981161928125,False
2270,mp-764917,Li3VO3F,32,P1,-2.5782134381249997,False
2271,mp-581162,Li3VO4,32,Pnma,-2.4953254481250005,False
2272,mp-780660,Li3VOF4,72,P1,-2.9660774454166665,False
2273,mp-757350,Li3VOF5,20,Imm2,-2.9663937065000003,False
2274,mp-760816,Li3VOF5,40,P1,-3.0427527342500005,False
2275,mp-765358,Li3VOF5,40,Pc,-3.0331952860000007,False
2276,mp-759965,Li3VOF6,44,P2_12_12_1,-2.900333342045455,False
2277,mp-1307408,Li3Y(NiO3)2,24,P-1,-2.0027127783333327,False
2278,mp-1309972,Li3Y(NiO3)2,24,C2/c,-2.0130014554166658,False
2279,mp-771780,Li3Zn(Fe5O8)4,56,Cm,-1.6833077841071418,False
2280,mp-1177501,Li3Zn2Fe19O32,56,Cm,-1.6998405744642855,False
2281,mp-771170,Li3Zn2Fe19O32,56,P1,-1.6963430024999997,False
2282,mp-758676,Li4(NiO2)11,37,P-1,-1.057344289144144,False
2283,mp-757913,Li4(NiO2)5,38,P-1,-1.3425378435964916,False
2284,mp-774600,Li4(NiO2)7,25,P-1,-1.228535913533333,False
2285,mp-850945,Li47(NiO4)8,87,P1,-1.860940654214559,False
2286,mp-849405,Li4Cu2Ni5O12,46,P2_1,-1.3165845921014487,False
2287,mp-752518,Li4Fe(OF)2,36,C2/m,-2.357063995648148,False
2288,mp-760830,Li4Fe2O5,44,P2_1/c,-1.938707666893938,False
2289,mp-770893,Li4Fe2O5,44,P2_1/c,-1.9129349596212109,False
2290,mp-776522,Li4Fe2OF8,30,Cc,-2.786434100722222,False
2291,mp-752847,Li4Fe3(OF3)2,30,P-1,-2.529951871888889,False
2292,mp-756606,Li4Fe5Cu3O16,28,Cm,-1.4389662844047615,False
2293,mp-757088,Li4Fe7(OF7)2,27,P-1,-2.562452385679012,False
2294,mp-759285,Li4Fe7(OF7)2,27,P-1,-2.548603059012345,False
2295,mp-764476,Li4Fe7(OF7)2,27,P1,-2.529613863456791,False
2296,mp-759241,Li4Fe7O12,46,P2_1,-1.7960597290579703,False
2297,mp-752680,Li4FeO3,32,Cc,-1.905431104791666,False
2298,mp-780154,Li4FeO3F,36,Cmc2_1,-2.1898228798148147,False
2299,mp-755232,Li4FeO4,36,P-1,-1.8727572578703702,False
2300,mp-754592,Li4FeOF4,40,I4/m,-2.7611553165833334,False
2301,mp-759422,Li4FeOF5,33,Cm,-2.805429966969697,False
2302,mp-779064,Li4FeOF5,44,Cc,-2.7899773630303035,False
2303,mp-698705,Li4Mn13O24,41,P1,-2.008120010400897,False
2304,mp-753323,Li4Mn2OF7,28,P1,-2.895867482085386,False
2305,mp-753977,Li4Mn3(OF3)2,30,P-1,-2.727735991141763,False
2306,mp-772110,Li4Mn3Nb5O16,28,Cm,-2.6041959798973724,False
2307,mp-1302578,Li4Mn3NbO8,32,P2/c,-2.3282466676329028,False
2308,mp-1304742,Li4Mn3NbO8,32,C2/c,-2.330138500132903,False
2309,mp-1305382,Li4Mn3NbO8,32,P-1,-2.3238231098204025,False
2310,mp-1310474,Li4Mn3NbO8,32,P-1,-2.324895259820403,False
2311,mp-1311406,Li4Mn3NbO8,32,P1,-2.3297834098204024,False
2312,mp-1311588,Li4Mn3NbO8,32,P1,-2.323962762320403,False
2313,mp-1313407,Li4Mn3NbO8,32,P-1,-2.330113380445403,False
2314,mp-1318717,Li4Mn3NbO8,32,P-1,-2.3205141004454024,False
2315,mp-771729,Li4Mn3NbO8,32,R-3m,-2.314769886070403,False
2316,mp-753944,Li4Mn3O5F3,30,Cm,-2.4203971494750958,False
2317,mp-753146,Li4Mn3O6F,28,C2/m,-2.25776982175903,False
2318,mp-1174220,Li4Mn3O7,28,P-1,-2.1413950249733174,False
2319,mp-1174244,Li4Mn3O7,28,P-1,-2.1405253560447455,False
2320,mp-1174248,Li4Mn3O7,28,P-1,-2.141085864259032,False
2321,mp-1174275,Li4Mn3O7,28,P-1,-2.133644039616174,False
2322,mp-1174283,Li4Mn3O7,28,P-1,-2.1197275614018887,False
2323,mp-1174285,Li4Mn3O7,28,P-1,-2.138697766044746,False
2324,mp-1174287,Li4Mn3O7,28,P-1,-2.136454897116174,False
2325,mp-1174288,Li4Mn3O7,28,P-1,-2.1400095406876027,False
2326,mp-1174294,Li4Mn3O7,28,P-1,-2.137965638544746,False
2327,mp-1174296,Li4Mn3O7,28,P-1,-2.142394819616174,False
2328,mp-1174297,Li4Mn3O7,28,P-1,-2.135964271401889,False
2329,mp-1174299,Li4Mn3O7,28,C2/m,-2.121670409973317,False
2330,mp-1174308,Li4Mn3O7,28,P-1,-2.137478576759032,False
2331,mp-1174312,Li4Mn3O7,28,P-1,-2.1380210349733173,False
2332,mp-1174316,Li4Mn3O7,28,P-1,-2.118560453187603,False
2333,mp-1174320,Li4Mn3O7,28,P-1,-2.1328458428304597,False
2334,mp-1174322,Li4Mn3O7,28,P-1,-2.114973988544745,False
2335,mp-1174323,Li4Mn3O7,28,P-1,-2.115602177116174,False
2336,mp-1174326,Li4Mn3O7,28,P-1,-2.118701553901889,False
2337,mp-1174330,Li4Mn3O7,28,P-1,-2.121933779259031,False
2338,mp-1174337,Li4Mn3O7,28,C2/m,-2.1407236714018887,False
2339,mp-1174348,Li4Mn3O7,28,P-1,-2.12609480783046,False
2340,mp-1174351,Li4Mn3O7,28,C2/m,-2.1258121339018885,False
2341,mp-1174359,Li4Mn3O7,28,C2/m,-2.123365846759031,False
2342,mp-1174373,Li4Mn3O7,28,C2/m,-2.121141321759031,False
2343,mp-1174378,Li4Mn3O7,28,C2/m,-2.1264039639018883,False