,material_id,formula_pretty,nsites,crystal_system,formation_energy_per_atom,is_stable
2344,mp-1174387,Li4Mn3O7,28,C2/m,-2.1232817485447453,False
2345,mp-1174410,Li4Mn3O7,28,C2/m,-2.1242145067590315,False
2346,mp-779008,Li4Mn3O8,60,R32,-2.0924313278084297,False
2347,mp-759970,Li4Mn3OF8,64,Pmn2_1,-2.8520962254454023,False
2348,mp-764336,Li4Mn3OF8,48,P1,-2.850891894455819,False
2349,mp-849516,Li4Mn5(CuO6)2,46,P2_1,-1.8454623120864564,False
2350,mp-752865,Li4Mn5Cu3O16,28,Cm,-1.69279612617816,False
2351,mp-772148,Li4Mn5Nb3O16,28,P1,-2.439292061535304,False
2352,mp-756259,Li4Mn5NbO12,44,C2/m,-2.2094543451358417,False
2353,mp-757628,Li4Mn5O10,38,P-1,-2.0726702251572906,False
2354,mp-691115,Li4Mn5O12,42,C2/c,-2.0514562053804006,True
2355,mp-763819,Li4Mn7(OF7)2,27,C2/m,-2.8013331677352062,False
2356,mp-758315,Li4Mn7O12,69,P1,-2.0690862595152426,False
2357,mp-757932,Li4Mn7O16,27,C2/m,-1.9354832132907613,False
2358,mp-753956,Li4Mn7O9F7,27,Cm,-2.4059287049574283,False
2359,mp-753840,Li4Mn8O13F3,28,Cm,-2.2145541679207716,False
2360,mp-766808,Li4Mn8O13F3,28,P1,-2.231129247206486,False
2361,mp-765998,Li4Mn8O9F7,28,P1,-2.4331121322064857,False
2362,mp-1177463,Li4Mn9O18,62,Pbam,-1.9700569617649242,False
2363,mp-753501,Li4MnO2F3,40,P-1,-2.683130214126437,False
2364,mp-759014,Li4MnO2F3,40,Cm,-2.666978723376436,False
2365,mp-1291001,Li4MnO3,32,P1,-1.9660724548455457,False
2366,mp-755396,Li4MnO3,32,Cc,-1.9674348173455458,False
2367,mp-753101,Li4MnO3F,36,Cmc2_1,-2.2501068343071515,False
2368,mp-759491,Li4MnOF5,22,C2/m,-2.887440611478579,False
2369,mp-766389,Li4MnOF5,33,Cm,-2.8614271213270643,False
2370,mp-554485,Li4Mo3O8,30,R-3m,-2.0410002715555557,False
2371,mp-541578,Li4Mo5O17,52,P-1,-2.0950718925320504,False
2372,mp-19117,Li4MoO5,20,P-1,-2.261947287833334,True
2373,mp-769502,Li4Nb2Fe3O10,38,P-1,-2.3400038949122814,False
2374,mp-768591,Li4Nb3Fe5O16,28,Cm,-2.27269209797619,False
2375,mp-772554,Li4Nb3V5O16,28,Cm,-2.6278836336904754,False
2376,mp-770888,Li4Nb5V3O16,28,Cm,-2.64902909404762,False
2377,mp-753213,Li4Ni2OF7,28,Cm,-2.577111265238095,False
2378,mp-758172,Li4Ni3(OF3)2,30,P-1,-2.398594396222222,False
2379,mp-766892,Li4Ni5O9,36,P-1,-1.4492324731018522,False
2380,mp-859156,Li4Ni7(OF7)2,27,C2/m,-2.344888420864198,False
2381,mp-768091,Li4Ni7O11,44,P-1,-1.4129632898106053,False
2382,mp-758275,Li4Ni7O12,69,P1,-1.327601359855072,False
2383,mp-764792,Li4Ni8O9F7,28,P1,-1.778154984583333,False
2384,mp-753143,Li4NiOF4,40,I4/mmm,-2.7358182345833333,False
2385,mp-759041,Li4Ti2Fe3O10,38,P-1,-2.4434235173684216,False
2386,mp-758960,Li4Ti2Fe5O12,46,P2_1,-2.2608955399999995,False
2387,mp-752796,Li4Ti2Mn3O10,38,P-1,-2.5948630730943743,False
2388,mp-759056,Li4Ti2Mn3O10,38,P-1,-2.588723747568058,False
2389,mp-759589,Li4Ti2Mn5O12,46,P2_1,-2.4554002784632685,False
2390,mp-769508,Li4Ti2Mn7O18,62,Pbam,-2.2850937748553948,False
2391,mp-758922,Li4Ti2Ni3O10,38,P-1,-2.216819504473685,False
2392,mp-759757,Li4Ti2Ni5O12,46,P2_1,-2.0290484102173916,False
2393,mp-758896,Li4Ti2V3O10,38,P-1,-2.7366364586842113,False
2394,mp-759236,Li4Ti2V5O12,46,P2_1,-2.6083867326086967,False
2395,mp-769491,Li4Ti2V7O18,62,Pmc2_1,-2.619155622580646,False
2396,mp-753168,Li4Ti3(FeO4)3,22,P-1,-2.543589495151515,False
2397,mp-752963,Li4Ti3(NiO4)3,22,C2,-2.370767766060604,False
2398,mp-771498,Li4Ti3Fe5O16,28,P1,-2.357173432619047,False
2399,mp-772971,Li4Ti3Mn5O16,28,Cm,-2.5338726383210175,False
2400,mp-769513,Li4Ti3Mn6O18,62,Pmc2_1,-2.4471323918038554,False
2401,mp-753117,Li4Ti3V3O12,22,P-1,-2.823014579242424,False
2402,mp-777694,Li4Ti3V5O16,28,P1,-2.7565036265476186,False
2403,mp-1177271,Li4Ti3V6O18,62,Pmc2_1,-2.7200106976881733,False
2404,mp-769512,Li4Ti4Mn5O18,62,Pbam,-2.6037694698813487,False
2405,mp-769487,Li4Ti4V5O18,62,Pbam,-2.8141399232795705,False
2406,mp-777591,Li4Ti5Fe3O16,28,Cm,-2.7863595449999994,False
2407,mp-777417,Li4Ti5Mn3O16,28,Cm,-2.8772738915640397,False
2408,mp-766836,Li4Ti5Mn4O18,62,Pbam,-2.7511915484427143,False
2409,mp-771000,Li4Ti5Ni3O16,28,Cm,-2.631906878928572,False
2410,mp-774230,Li4Ti5V3O16,28,Cm,-2.9989022378571426,False
2411,mp-760000,Li4Ti5VO12,66,P-1,-2.9974605628787883,False
2412,mp-760999,Li4TiMn3O8,48,P1,-2.3952594929454025,False
2413,mp-754620,Li4TiMn5O12,22,C2/m,-2.2273335489237196,False
2414,mp-769509,Li4TiMn8O18,62,Pmc2_1,-2.1321187230682237,False
2415,mp-1277563,Li4TiNi3O8,32,C2/m,-1.9962954282291667,False
2416,mp-1298695,Li4TiNi3O8,32,P-1,-1.9939682191666668,False
2417,mp-1303744,Li4TiNi3O8,32,P-1,-1.9945458069791666,False
2418,mp-1306771,Li4TiNi3O8,32,P1,-1.9960401535416672,False
2419,mp-754484,Li4TiV3O10,36,P-4m2,-2.6247231992592597,False
2420,mp-769497,Li4TiV8O18,62,P1,-2.5265664065053772,False
2421,mp-758647,Li4V11O22,37,P1,-2.4218194550900907,False
2422,mp-765046,Li4V2OF7,28,P1,-3.0113291216666664,False
2423,mp-1302394,Li4V3O8,30,P-1,-2.4367951345555565,False
2424,mp-1308066,Li4V3O8,30,Cc,-2.438864157222223,False
2425,mp-1314586,Li4V3O8,30,Pc,-2.43876095488889,False
2426,mp-28699,Li4V3O8,30,P2_1/m,-2.454901193555556,False
2427,mp-771788,Li4V3O8,30,R-3,-2.4139819798888897,False
2428,mp-775320,Li4V3O8,30,R-3,-2.440726505555556,False
2429,mp-1177195,Li4V3OF11,38,P1,-3.0847779549122807,False
2430,mp-1177290,Li4V3OF11,38,P1,-3.090241119122807,False
2431,mp-777267,Li4V3OF11,38,P1,-3.0937228083333337,False
2432,mp-778466,Li4V3OF11,38,P1,-3.0992420346491234,False
2433,mp-780283,Li4V3OF11,38,P-1,-3.114708759649123,False
2434,mp-765901,Li4V4(OF3)3,20,P1,-2.9105928909166665,False
2435,mp-851075,Li4V5O12,84,P2_1/c,-2.424471151825396,False
2436,mp-758538,Li4V7O12,46,P2_1,-2.42805596557971,False
2437,mp-867535,Li4V7O9F7,27,Cm,-2.735112016604938,False
2438,mp-767820,Li4V8O13F3,28,P1,-2.5939998420833326,False
2439,mp-1177174,Li4V9O18,62,Pbam,-2.431884337365591,False
2440,mp-758786,Li4VO3F2,20,C2/c,-2.670988513583334,False
2441,mp-764753,Li4VO3F2,40,P1,-2.676536831833334,False
2442,mp-752582,Li4VO4F,20,Cc,-2.6045134550833327,False
2443,mp-752971,Li4VO4F,20,P2_1,-2.5684274420833333,False
2444,mp-756449,Li4Y3FeO8,64,C222,-2.8766460533333325,False
2445,mp-756303,Li4Y3MnO8,64,C222,-2.9160845864852725,False
2446,mp-1290983,Li4Y3VO8,32,C2,-3.014168735208333,False
2447,mp-756980,Li4Y3VO8,64,C222,-3.012502495520833,False
2448,mp-780312,Li5(FeO2)4,34,Cc,-1.8465698959803911,False
2449,mp-780142,Li5(NiO2)4,68,P4_332,-1.491887071274509,False
2450,mp-780518,Li5(NiO2)4,34,Cc,-1.5008288150980378,False
2451,mp-690572,Li5(NiO2)6,23,P1,-1.3957104128985507,False
2452,mp-758751,Li5(NiO2)8,58,P1,-1.2572457048850574,False
2453,mp-756021,Li5Cu2Ni3O10,20,P-1,-1.4456283460833326,False
2454,mp-754449,Li5Cu2Ni5O12,24,C2,-1.4202459973611106,False
2455,mp-773166,Li5Cu3(NiO5)2,20,P-1,-1.385306338583333,False
2456,mp-758105,Li5Fe11O16,32,C2/m,-1.7193065470833329,False
2457,mp-762692,Li5Fe11O16,32,P1,-1.7265703173958329,False
2458,mp-766727,Li5Fe11O16,64,P2_1/c,-1.746400128645833,False
2459,mp-771233,Li5Fe2Cu3O10,20,P-1,-1.5747800290833331,False
2460,mp-771192,Li5Fe2Cu5O12,24,C2,-1.437041770694444,False
2461,mp-755996,Li5Fe3(CuO5)2,20,P-1,-1.6895681598333332,False
2462,mp-1177125,Li5Fe3(OF5)2,20,P1,-2.688825369833333,False
2463,mp-1177185,Li5Fe3O8,32,P2_1,-1.842467887291665,False
2464,mp-780216,Li5Fe3O8,32,P1,-1.8421156847916658,False
2465,mp-757148,Li5Fe5(CuO6)2,24,C2,-1.7258409223611106,False
2466,mp-758794,Li5Fe5O12,44,P1,-1.7030517457575756,False
2467,mp-759022,Li5Fe5O12,44,P1,-1.7087638368939393,False
2468,mp-771687,Li5Fe5O12,22,C2,-1.6744834175757575,False
2469,mp-756856,Li5Fe7O12,24,C2,-1.840622462361111,False
2470,mp-764872,Li5Fe7O3F13,28,Cm,-2.5056440436309524,False
2471,mp-780457,Li5Fe7O3F13,28,P1,-2.505834825059524,False
2472,mp-753464,Li5FeO3F,40,Ama2,-2.1092107606666657,False
2473,mp-761250,Li5FeO3F,40,C2/m,-2.1528207014166667,False
2474,mp-19511,Li5FeO4,80,Pbca,-2.040304657666667,True
2475,mp-770834,Li5FeO4,40,P2_1/c,-1.9944008926666654,False
2476,mp-770923,Li5FeO4,40,P2_1/c,-1.968925946166666,False
2477,mp-779333,Li5FeO4,40,Pnnm,-1.970960269916666,False
2478,mp-779889,Li5FeO4,80,Pbca,-1.9522133406666662,False
2479,mp-780192,Li5FeO4,40,P1,-1.9932567331666662,False
2480,mp-780207,Li5FeO4,40,P1,-1.983025693916666,False
2481,mp-1177116,Li5FeO4F,44,P2_1,-2.1155913276515146,False
2482,mp-1177101,Li5FeOF5,36,P3_1,-2.7851401652777774,False
2483,mp-777279,Li5FeOF5,48,Cc,-2.7870491411805554,False
2484,mp-755409,Li5Mn2Cu3O10,40,P-1,-1.7378641966264374,False
2485,mp-764735,Li5Mn2Cu5O12,24,C2,-1.5640521984386975,False
2486,mp-755123,Li5Mn3Nb2O10,40,P-1,-2.4305716185229884,False
2487,mp-1174554,Li5Mn3O8,32,C2/m,-2.134499663778736,False
2488,mp-1174683,Li5Mn3O8,32,P2/m,-2.1112072931537362,False
2489,mp-1174685,Li5Mn3O8,32,P2/m,-2.1145010881537356,False
2490,mp-1174761,Li5Mn3O8,32,P-1,-2.1149481590912362,False
2491,mp-1174778,Li5Mn3O8,32,P-1,-2.119707270653736,False
2492,mp-1277600,Li5Mn3O8,32,C2/m,-2.1467887190912354,False
2493,mp-1284734,Li5Mn3O8,32,P1,-2.147933560653736,False
2494,mp-1290794,Li5Mn3O8,32,P-1,-2.147808685966236,False
2495,mp-1297800,Li5Mn3O8,32,C2/c,-2.1377442628412355,False
2496,mp-1314325,Li5Mn3O8,32,C2/c,-2.133539165653736,False
2497,mp-1315117,Li5Mn3O8,32,P-1,-2.1471700215912355,False
2498,mp-1316353,Li5Mn3O8,32,P1,-2.1297008787787357,False
2499,mp-1293032,Li5Mn4O8,34,P-1,-2.07336881637593,False
2500,mp-1308491,Li5Mn4O8,34,P-1,-2.0551660346112235,False
2501,mp-754396,Li5Mn4O8,34,Cmc2_1,-2.065619244022988,False
2502,mp-756461,Li5Mn4O8,34,C2/m,-2.0492658349053414,False
2503,mp-758752,Li5Mn5O12,44,P1,-2.0214194861964474,False
2504,mp-758791,Li5Mn5O12,44,P1,-2.033222467560084,False
2505,mp-771669,Li5Mn5O12,22,P-1,-2.0423520402873563,False
2506,mp-753735,Li5Mn5O9F,20,P1,-2.188208875316092,False
2507,mp-1638896,Li5Mn6O12,23,P1,-2.107757804967517,False
2508,mp-756143,Li5Mn6O12,23,P-1,-2.092501340619691,False
2509,mp-758809,Li5Mn6O16,27,R-3m,-1.859138293490847,False
2510,mp-754393,Li5Mn7O12,24,C2,-2.0856998642576627,False
2511,mp-774493,Li5Mn7O15,27,Cm,-2.0149656875808852,False
2512,mp-530177,Li5Mn7O16,56,Pnnm,-2.064808498470854,True
2513,mp-1291341,Li5MnO3F,40,P-1,-2.188884137959769,False
2514,mp-1302599,Li5MnO3F,40,P2_1/m,-2.1893551469597696,False
2515,mp-1308806,Li5MnO3F,20,Cm,-2.188086830459769,False
2516,mp-1318721,Li5MnO3F,40,P2_1,-2.194304304459769,False
2517,mp-759909,Li5MnO3F,40,Pnma,-2.1760941527097692,False
2518,mp-759969,Li5MnO3F,40,C2/m,-2.1948015187097694,False
2519,mp-763434,Li5MnO3F,20,P1,-2.1936051014597693,False
2520,mp-753558,Li5MnO3F2,44,C2/m,-2.4434511545088813,False
2521,mp-754285,Li5MnO4,20,Pmmn,-2.0341687814597704,False
2522,mp-755825,Li5MnO4,40,Pmn2_1,-2.0368541649597702,False
2523,mp-770510,Li5MnO4,80,Pbca,-2.0560287537097706,False
2524,mp-770514,Li5MnO4,80,Pbca,-2.0142992663347696,False
2525,mp-770528,Li5MnO4,80,P4_2/nmc,-2.0007118825847696,False
2526,mp-774621,Li5MnO4,20,Aea2,-2.05779043295977,False
2527,mp-1305525,Li5Nb2Fe3O10,40,P1,-2.2874510708333333,False
2528,mp-754582,Li5Nb2Fe3O10,40,P-1,-2.288062469583333,False
2529,mp-772705,Li5Nb2Fe5O12,24,P1,-2.1357822590277777,False
2530,mp-755736,Li5Nb2Ni3O10,20,P-1,-2.206478321083334,False
2531,mp-754421,Li5Nb2V3O10,40,P-1,-2.497976504083333,False
2532,mp-754737,Li5Nb2V5O12,24,C2,-2.394192416944444,False
2533,mp-775480,Li5Nb6NiO18,60,P1,-2.7585276098888887,False
2534,mp-765310,Li5Ni2O2F5,28,I4/mmm,-2.58364990279762,False
2535,mp-764733,Li5Ni5O9F,20,P1,-1.5974574093333325,False
2536,mp-756931,Li5Ni7O12,24,C2,-1.434040953611112,False
2537,mp-758491,Li5Ni9O16,60,P-1,-1.2539777085555557,False
2538,mp-758448,Li5NiO3F,20,C2/m,-2.0170482336666664,False
2539,mp-771876,Li5NiO4,80,Pbca,-1.823779894916666,False
2540,mp-774500,Li5NiO4,40,Aea2,-1.8027582664166666,False
2541,mp-778478,Li5NiO4,80,Pbca,-1.7361174264166663,False
2542,mp-1273264,Li5NiOF5,48,Cm,-2.7655887080555552,False
2543,mp-1277814,Li5NiOF5,48,Pc,-2.767237075555556,False
2544,mp-1289063,Li5NiOF5,48,Cc,-2.767216383055556,False
2545,mp-753062,Li5NiOF5,24,P3m1,-2.767044070972222,False
2546,mp-753377,Li5NiOF5,24,P4/mmm,-2.8094897805555554,False
2547,mp-1177123,Li5Ti2Fe3O10,20,P1,-2.4519901514166675,False
2548,mp-765709,Li5Ti2Fe3O10,20,P-1,-2.4465363499166672,False
2549,mp-756825,Li5Ti2Fe5O12,24,C2,-2.278093538888888,False
2550,mp-1311067,Li5Ti2Mn3O10,40,P-1,-2.595848666856321,False
2551,mp-752782,Li5Ti2Mn3O10,40,P1,-2.5932644286063207,False
2552,mp-771262,Li5Ti2Mn5O12,24,C2,-2.466207919707854,False
2553,mp-771355,Li5Ti2Mn8O20,70,C2/m,-2.319796002908046,False
2554,mp-755014,Li5Ti2Ni3O10,20,P-1,-2.315552860416666,False
2555,mp-770539,Li5Ti2Ni5O12,24,C2,-2.1140703901388895,False
2556,mp-1289239,Li5Ti2V3O10,40,P-1,-2.697434627416667,False
2557,mp-1305527,Li5Ti2V3O10,40,P1,-2.701144631916667,False
2558,mp-760954,Li5Ti2V3O10,40,P-1,-2.7011475654166666,False
2559,mp-754301,Li5Ti2V5O12,24,C2,-2.575618933472223,False
2560,mp-769637,Li5Ti6FeO16,56,P2_1,-3.0658789739880947,True
2561,mp-774656,Li5Ti6FeO16,28,Pm,-3.0319977370238087,False
2562,mp-761048,Li5TiMn3O8,68,P1,-2.321582508458417,False
2563,mp-775413,Li5TiMn9O20,70,C2/m,-2.111780289896551,False
2564,mp-778500,Li5TiMn9O20,70,P1,-2.1866798134679812,False
2565,mp-766385,Li5V12O32,49,Cm,-2.3571925356462584,False
2566,mp-773027,Li5V18O44,67,Pm,-2.36482600681592,False
2567,mp-760197,Li5V2OF11,38,P1,-3.0547618940350874,False
2568,mp-759940,Li5V4O12F,44,P2_1/c,-2.43471678246212,False
2569,mp-757773,Li5V5O12,44,P1,-2.4231971139393944,False
2570,mp-758739,Li5V5O12,44,P1,-2.4496861446212113,False
2571,mp-761283,Li5V5O9F,20,P1,-2.463463428333334,False
2572,mp-774871,Li5V6(CuO4)6,82,P2_1/c,-1.9086398910162594,False
2573,mp-1177029,Li5V6O5F19,35,P1,-2.9595773800476195,False
2574,mp-1177030,Li5V6O5F19,35,P1,-2.960962193190476,False
2575,mp-776992,Li5V6O5F19,35,P1,-2.933464494904762,False
2576,mp-777288,Li5V6O5F19,35,P1,-2.932955262333334,False
2577,mp-777740,Li5V6O5F19,35,P1,-2.9347429514761902,False
2578,mp-777783,Li5V6O5F19,35,P1,-2.938646238619048,False
2579,mp-778233,Li5V6O5F19,70,P1,-2.950631531047619,False
2580,mp-779337,Li5V6O5F19,35,P1,-2.956364084619048,False
2581,mp-780936,Li5V6O5F19,35,P1,-2.944194960619048,False
2582,mp-764746,Li5V7O12,24,C2,-2.3769472294444447,False
2583,mp-752747,Li5VO3F2,44,C2/m,-2.540770432424242,False
2584,mp-753535,Li5VO3F2,44,Cm,-2.5313754285606063,False
2585,mp-758384,Li5VO4F,22,Cc,-2.453911539015151,False
2586,mp-761103,Li5VO4F,22,P2_1,-2.452211260833332,False
2587,mp-758747,Li6(NiO2)11,39,P1,-1.2048470173076917,False
2588,mp-768104,Li6(NiO2)13,45,P-1,-1.1387945463333324,False
2589,mp-752908,Li6(NiO2)5,21,P-1,-1.4953223130952384,False
2590,mp-755545,Li6Fe(O2F)2,26,P-1,-2.2345555369230774,False
2591,mp-780876,Li6Fe(OF)3,52,R3m,-2.451398198269231,False
2592,mp-776572,Li6Fe2O5F2,30,P-1,-2.2069818588333328,False
2593,mp-867783,Li6Fe5CuO12,24,C2/m,-1.7846527329166655,False
2594,mp-780188,Li6Fe5O12,23,C2,-1.8077008460869555,False
2595,mp-780305,Li6Fe5O12,46,P1,-1.783269140652173,False
2596,mp-756155,Li6FeO4,44,P4_2/nmc,-1.9601788595454546,False
2597,mp-778608,Li6FeO4F,24,P2_1,-2.134049478125,False
2598,mp-764903,Li6FeO5F,26,P1,-1.9926293096153846,False
2599,mp-753452,Li6Mn(OF)3,52,P1,-2.512535454648541,False
2600,mp-766020,Li6Mn(OF)3,52,P1,-2.5103135248408486,False
2601,mp-759326,Li6Mn11(OF12)2,43,P1,-2.8528853254009623,False
2602,mp-757508,Li6Mn15O32,53,C2/m,-1.9106222207351986,False
2603,mp-761797,Li6Mn15O32,53,P-1,-1.933953870169161,False
2604,mp-758827,Li6Mn17O40,63,Cm,-1.76159252118774,False
2605,mp-766030,Li6Mn2O5F2,30,P1,-2.3310104052241387,False
2606,mp-766095,Li6Mn2O5F2,30,Pc,-2.3275899228908035,False
2607,mp-767601,Li6Mn2O5F2,30,P-1,-2.3114604355574713,False
2608,mp-754082,Li6Mn2OF11,20,P1,-2.8940148829181043,False
2609,mp-753134,Li6Mn5O10,21,Cm,-2.080705131650246,False
2610,mp-764759,Li6Mn5O12,23,C2,-2.09614336868066,False
2611,mp-779719,Li6Mn5O12,46,P1,-2.099503539332833,False
2612,mp-867994,Li6Mn9O20,70,C2/m,-2.0435356771822657,False
2613,mp-770533,Li6MnO4,44,P4_2/nmc,-2.0492443220846397,False
2614,mp-767576,Li6MnO4F,48,P2_1,-2.1929473464942526,False
2615,mp-690581,Li6Mo2O7,30,Pma2,-2.0992989094999994,False
2616,mp-752667,Li6NbFe5O12,24,Cm,-2.058200823333332,False
2617,mp-759635,Li6Ni11(OF12)2,43,P1,-2.4000403503488372,False
2618,mp-1568601,Li6NiO4,22,P4_22_12,-1.8689837650000003,False
2619,mp-1570562,Li6NiO4,44,Cmm2,-1.8853288213636368,False
2620,mp-1641670,Li6NiO4,44,P4_2mc,-1.882906379545455,False
2621,mp-1643730,Li6NiO4,44,P2_1/m,-1.8848502645454552,False
2622,mp-756411,Li6NiO4,44,Pmmn,-1.8858124259090916,False
2623,mp-753281,Li6NiOF6,56,Immm,-2.799085128035714,False
2624,mp-753283,Li6NiOF6,28,I4/mmm,-2.8604071423214283,False
2625,mp-861187,Li6TiFe5O12,24,C2,-2.1109483159722218,False
2626,mp-758326,Li6TiNi7O16,30,P1,-1.5997663104444446,False
2627,mp-764951,Li6V2O5F2,30,P-1,-2.4906686405,False
2628,mp-753701,Li6V2OF11,20,C2,-3.1103673792499995,False
2629,mp-765834,Li6V2OF11,40,P1,-3.12115604125,False
2630,mp-1177023,Li6V5O12,23,C2,-2.4467252500000005,False
2631,mp-760815,Li6V5O12,46,P1,-2.456292217608696,False
2632,mp-764771,Li6V5O12,23,P1,-2.456816773913043,False
2633,mp-757210,Li6VO4F,48,P2_1,-2.288835527291667,False
2634,mp-765511,Li6VO5F,26,P1,-2.4311149126923075,False
2635,mp-766574,Li7(NiO2)10,37,C2/m,-1.3077635527927929,False
2636,mp-768079,Li7(NiO2)11,40,P-1,-1.2617815779583323,False
2637,mp-758820,Li7(NiO2)12,43,C2,-1.2273279519379838,False
2638,mp-690528,Li7(NiO2)8,31,P-1,-1.4142418207526875,False
2639,mp-757736,Li7(NiO2)9,34,P-1,-1.3645748296568616,False
2640,mp-850795,Li7Fe(O2F)2,28,P1,-2.266678495595238,False
2641,mp-1176887,Li7Fe3O10,20,P-1,-1.7696700959166662,False
2642,mp-771124,Li7Fe3O8,36,P-1,-1.9106682860185187,False
2643,mp-1176882,Li7Fe5O12,24,C2,-1.8785391834722223,False
2644,mp-756862,Li7Fe5O12,24,C2,-1.8936677605555559,False
2645,mp-759661,Li7FeO5F,56,P1,-2.0932401704166668,False
2646,mp-753376,Li7Mn(O2F)2,56,P1,-2.339928149376027,False
2647,mp-766052,Li7Mn(O2F)2,28,P1,-2.3285164147331696,False
2648,mp-760307,Li7Mn(OF)3,56,P1,-2.4390918136617397,False
2649,mp-675534,Li7Mn10O24,41,C2,-1.9836395144547245,False
2650,mp-34461,Li7Mn11O24,42,P-1,-2.0240165840613025,False
2651,mp-675260,Li7Mn11O24,42,C2/m,-1.9812256500136833,False
2652,mp-690435,Li7Mn11O24,42,C2,-2.0241199412041597,False
2653,mp-765632,Li7Mn11O24,42,C2/m,-1.9859241150136828,False
2654,mp-773172,Li7Mn12Cu5O32,56,R3,-1.8066519542590314,False
2655,mp-757896,Li7Mn14O32,53,R3m,-1.9338564768748638,False
2656,mp-531650,Li7Mn16O32,55,I-42m,-1.9584854240041791,False
2657,mp-694974,Li7Mn16O32,55,P1,-2.0242927138223608,False
2658,mp-531248,Li7Mn17O32,56,I-42m,-1.9666782201457298,False
2659,mp-699179,Li7Mn17O32,56,C2,-2.047537571038587,False
2660,mp-764763,Li7Mn4O12,23,P1,-2.068840515437281,False
2661,mp-1175308,Li7Mn5O12,48,P-1,-2.1419719061661877,False
2662,mp-1175310,Li7Mn5O12,48,P-1,-2.115404648457855,False
2663,mp-1175313,Li7Mn5O12,48,P-1,-2.144148480749521,False
2664,mp-1175314,Li7Mn5O12,24,P-1,-2.154608696791188,False
2665,mp-1175316,Li7Mn5O12,24,P-1,-2.1284162813745215,False
2666,mp-1175317,Li7Mn5O12,48,P-1,-2.1391324413745214,False
2667,mp-1175318,Li7Mn5O12,48,P-1,-2.125330623457854,False
2668,mp-1175321,Li7Mn5O12,48,P-1,-2.1262068232495213,False
2669,mp-1175323,Li7Mn5O12,48,P-1,-2.1261635565828545,False
2670,mp-1175324,Li7Mn5O12,24,P-1,-2.0874451884578544,False
2671,mp-1175325,Li7Mn5O12,24,P-1,-2.137253811791187,False
2672,mp-1175326,Li7Mn5O12,48,P-1,-2.127692627207854,False
2673,mp-1175328,Li7Mn5O12,24,P-1,-2.1272378667911878,False
2674,mp-1175331,Li7Mn5O12,24,P-1,-2.132253667624521,False
2675,mp-1175332,Li7Mn5O12,24,P-1,-2.1280975284578543,False
2676,mp-1175334,Li7Mn5O12,24,P-1,-2.129287784291188,False
2677,mp-1175335,Li7Mn5O12,48,P-1,-2.126554653249521,False
2678,mp-1175337,Li7Mn5O12,24,P-1,-2.1304525476245213,False
2679,mp-1175339,Li7Mn5O12,24,P-1,-2.0869540680411878,False
2680,mp-1175340,Li7Mn5O12,24,P-1,-2.116099935541188,False
2681,mp-1175343,Li7Mn5O12,48,P-1,-2.135141574291188,False
2682,mp-1175344,Li7Mn5O12,24,P-1,-2.1197883913745206,False
2683,mp-1175347,Li7Mn5O12,48,C2/m,-2.1283500905411885,False
2684,mp-1175349,Li7Mn5O12,24,P-1,-2.1438474938745213,False