,material_id,formula_pretty,nsites,crystal_system,formation_energy_per_atom,is_stable
0,mp-1178123,Li(CoO2)2,28,Cmc2_1,-1.4301443004761905,False
1,mp-1178332,Li(CoO2)2,56,P1,-1.457210143511905,False
2,mp-1377260,Li(CoO2)2,56,P4_322,-1.4579167622619045,False
3,mp-25383,Li(CoO2)2,56,Fd-3m,-1.4516050590476186,False
4,mp-755386,Li(CoO2)2,28,Pmmn,-1.475349189404762,False
5,mp-758122,Li(CoO2)2,28,Pbcn,-1.4520936083333342,False
6,mp-773076,Li(CoO2)2,56,P4_332,-1.4867665747619045,False
7,mp-774082,Li(CoO2)2,56,P2_1,-1.5040196967261903,True
8,mp-1285961,Li(CoO2)3,20,C2/m,-1.3464256298333326,False
9,mp-1307826,Li(CoO2)3,20,C2/m,-1.3364438613333334,False
10,mp-759301,Li(CoO2)3,20,Cc,-1.3580022998333334,False
11,mp-1282881,Li(CoO2)4,26,C2/m,-1.290192894871795,False
12,mp-1290247,Li(CoO2)4,26,P2/m,-1.2869662360256409,False
13,mp-1305141,Li(CoO2)4,26,C2/m,-1.2496612925641022,False
14,mp-1306886,Li(CoO2)4,26,P2/m,-1.2558142621794877,False
15,mp-758972,Li(CoO2)4,26,R-3m,-1.253005057948718,False
16,mp-780322,Li(CoO2)4,26,R-3m,-1.293472008717948,False
17,mp-674388,Li(CoO2)8,25,P-1,-1.1585293361333333,False
18,mp-1193147,Li(RuO2)2,28,Pnma,-1.5093346354761894,False
19,mp-530277,Li10Co11O21,84,P-1,-1.694866373948412,False
20,mp-1185179,Li10Co4O9,46,P4_2/nmc,-1.7730197532971006,False
21,mp-773128,Li10Co4O9,46,P-1,-1.7478974913405794,False
22,mp-769567,Li10Ti11Cr9O40,70,P-1,-2.9218297829999997,False
23,mp-777402,Li10Ti2Mn3Ni3O16,34,P1,-2.1807850112880325,False
24,mp-769483,Li11(CoO4)2,42,C222_1,-1.911476090793651,False
25,mp-757395,Li11(RuO3)8,43,P1,-1.7235239843410846,False
26,mp-764428,Li12Cr5O16,33,P1,-2.1406850612121207,False
27,mp-531078,Li13Co11O24,96,P2_1/c,-1.7368367923611103,False
28,mp-766887,Li13Co15O28,56,P-1,-1.6173986997023806,False
29,mp-777836,Li14Co13O28,55,P-1,-1.70350221521212,False
30,mp-758530,Li15Cr2O12,29,P1,-2.06236114862069,False
31,mp-543091,Li16(CoO4)3,62,P1,-1.9100457467204288,False
32,mp-1172980,Li17(CoO4)3,64,P1,-1.9205978823958327,False
33,mp-543090,Li17(CoO4)3,64,P2_1,-1.9169609042708329,False
34,mp-768424,Li17(CoO4)4,37,Pm,-1.797505418828829,False
35,mp-754575,Li17Cr2O12,31,P1,-2.074404127311827,False
36,mp-768441,Li19(CoO4)4,39,Pm,-1.8347113372649573,False
37,mp-705847,Li2(CoO2)3,22,P-1,-1.5422357601515144,False
38,mp-758725,Li2(CoO2)3,22,Cc,-1.5684688778787872,False
39,mp-532301,Li20(CoO2)21,83,P-1,-1.717038068092368,False
40,mp-685270,Li20Co21O40,81,I-4,-1.6649114986008229,False
41,mp-705640,Li20Co21O40,81,P1,-1.6850249941563782,False
42,mp-850954,Li21(CoO4)4,82,Pc,-1.8909375504878052,False
43,mp-778889,Li24Ti11CrO36,72,C2,-2.91620510925926,False
44,mp-779092,Li24Ti11CrO36,72,C2,-2.9162081925925936,False
45,mp-779227,Li24Ti11CrO36,72,C2,-2.916083450787037,False
46,mp-779361,Li24Ti11CrO36,72,P1,-2.91632700800926,False
47,mp-779775,Li24Ti11CrO36,72,C2,-2.9158045882870374,False
48,mp-768397,Li24Ti5Cr7O36,72,P1,-2.540866447314814,False
49,mp-768398,Li24Ti5Cr7O36,72,P1,-2.5410013616203693,False
50,mp-768407,Li24Ti5Cr7O36,72,P1,-2.540331264398148,False
51,mp-768408,Li24Ti5Cr7O36,72,P1,-2.5402564777314813,False
52,mp-768421,Li24Ti5Cr7O36,72,P1,-2.538487181203703,False
53,mp-768431,Li24Ti5Cr7O36,72,P1,-2.5407265552314806,False
54,mp-768433,Li24Ti5Cr7O36,72,P1,-2.540086856898147,False
55,mp-768480,Li24Ti5Cr7O36,72,P1,-2.540756854259259,False
56,mp-768532,Li24Ti5Cr7O36,72,P1,-2.5353415078703705,False
57,mp-771365,Li24Ti5Cr7O36,72,P1,-2.5402853253703706,False
58,mp-768391,Li24Ti7Cr5O36,72,P1,-2.664935268657407,False
59,mp-768392,Li24Ti7Cr5O36,72,P1,-2.6650902179629634,False
60,mp-768405,Li24Ti7Cr5O36,72,P1,-2.6643663896296297,False
61,mp-768406,Li24Ti7Cr5O36,72,P1,-2.661941030185185,False
62,mp-768420,Li24Ti7Cr5O36,72,P1,-2.657799322685185,False
63,mp-768430,Li24Ti7Cr5O36,72,P1,-2.6622087811574064,False
64,mp-768449,Li24Ti7Cr5O36,72,P1,-2.6646279919907396,False
65,mp-768475,Li24Ti7Cr5O36,72,P1,-2.6639865751851852,False
66,mp-771282,Li24Ti7Cr5O36,72,P1,-2.664230906712962,False
67,mp-1178068,Li24TiCr11O36,72,C2,-2.2929697739351855,False
68,mp-777351,Li24TiCr11O36,72,C2,-2.2924185897685185,False
69,mp-779077,Li24TiCr11O36,72,P1,-2.295056084768518,False
70,mp-780842,Li24TiCr11O36,72,C2,-2.29180280087963,False
71,mp-760346,Li2Co4OF8,30,P-1,-2.326705046277778,False
72,mp-765686,Li2Co4OF8,30,Cc,-2.3424790016111117,False
73,mp-1173879,Li2CoO3,24,C2/m,-1.7748982956944488,True
74,mp-1290895,Li2CoO3,24,P1,-1.7081644123611106,False
75,mp-1306461,Li2CoO3,24,P-1,-1.7060062569444436,False
76,mp-1314570,Li2CoO3,24,P-1,-1.744939900694444,False
77,mp-760048,Li2CoOF2,24,P4/nmm,-2.4919203398611116,False
78,mp-1318077,Li2CoOF3,28,P1,-2.453208264166666,False
79,mp-754564,Li2CoOF3,28,P4_1,-2.49140631845238,False
80,mp-754749,Li2CoOF3,28,C2/m,-2.494856694523809,False
81,mp-1178024,Li2Cr2O7,22,C2/c,-1.85717073128788,False
82,mp-753892,Li2Cr2O7,22,P-1,-1.855893267424242,False
83,mp-754365,Li2Cr2O7,22,C2/c,-1.8766842635606067,False
84,mp-770678,Li2Cr2O7,44,P2_1/c,-1.8691582935606073,False
85,mp-770745,Li2Cr2O7,44,Cmce,-1.8213866892424255,False
86,mp-770862,Li2Cr2O7,44,P-1,-1.8556452067424245,False
87,mp-770872,Li2Cr2O7,44,P-1,-1.8362364171969703,False
88,mp-770895,Li2Cr2O7,44,P-1,-1.815428348106061,False
89,mp-771091,Li2Cr2O7,44,P4_12_12,-1.8257519242424252,False
90,mp-772272,Li2Cr2O7,44,P2_1/c,-1.801983743560607,False
91,mp-772297,Li2Cr2O7,22,P1,-1.8199270912878789,False
92,mp-772318,Li2Cr2O7,22,P-1,-1.8448958735606065,False
93,mp-772396,Li2Cr2O7,22,P-1,-1.8218397435606073,False
94,mp-772586,Li2Cr2O7,44,P2_1/c,-1.8309175106060616,False
95,mp-772666,Li2Cr2O7,22,P-1,-1.8153806012878795,False
96,mp-753941,Li2Cr3O6,22,Cmce,-2.227996150151515,False
97,mp-758437,Li2Cr3O6,22,Fddd,-2.2410494706060606,False
98,mp-758744,Li2Cr3O6,22,Cc,-2.2521073160606067,False
99,mp-770390,Li2Cr4O13,76,P2_1/c,-1.727545546271931,False
100,mp-772323,Li2Cr4O13,76,P2_1/c,-1.72689609377193,False
101,mp-773145,Li2Cr4O13,38,C222_1,-1.6983407925877205,False
102,mp-773197,Li2Cr4O13,38,C2/c,-1.691686479166667,False
103,mp-772650,Li2Cr5O12,76,Pbcn,-1.9845901956140353,False
104,mp-1178001,Li2CrO2,20,Immm,-2.0874682838333327,False
105,mp-1272606,Li2CrO2,20,C2/m,-2.078954345333334,False
106,mp-1276717,Li2CrO2,20,P-1,-2.023154079833334,False
107,mp-1281428,Li2CrO2,20,P2_1/m,-2.021879810833333,False
108,mp-1291459,Li2CrO2,20,C2/m,-2.075128937833334,False
109,mp-755566,Li2CrO2,20,C2/m,-2.031142202833334,False
110,mp-1280547,Li2CrO3,24,P-1,-2.2101971269444447,False
111,mp-1301792,Li2CrO3,24,C2,-2.2101595573611115,False
112,mp-754091,Li2CrO3,24,C2/m,-2.2365294956944446,False
113,mp-770628,Li2CrO3,24,C2/c,-2.2324583440277785,False
114,mp-17159,Li2CrO4,42,R-3,-2.085815476190477,True
115,mp-773050,Li2CrO4,56,Pc,-1.9876847688095245,False
116,mp-755899,Li2Mn(NiO3)2,22,Cmce,-1.5770334658725182,False
117,mp-554979,Li2Mn2NiO6,22,Cmce,-1.874927675229884,False
118,mp-758510,Li2Mn2NiO6,33,P-1,-1.8777843888662478,False
119,mp-1177919,Li2Mn3NiO8,56,P2_1,-1.8946603632471255,False
120,mp-771112,Li2Mn3NiO8,56,P4_332,-1.9481946439614108,True
121,mp-771971,Li2Mn3NiO8,28,P6_3mc,-1.9010383418185544,False
122,mp-775284,Li2Mn3NiO8,56,P2_13,-1.881661509139983,False
123,mp-774906,Li2MnNi3O8,56,P1,-1.4459668699712631,False
124,mp-757558,Li2NbCo3O8,28,P6_3mc,-1.9597432886904755,False
125,mp-1178121,Li(Fe2O3)4,42,P-1,-1.6603181337301578,False
126,mp-758077,Li(Fe2O3)4,42,Cc,-1.662225621349206,False
127,mp-997515,Li(Fe2O3)4,42,P1,-1.6777376639682533,False
128,mp-1178106,Li(FeO2)2,28,Cc,-1.6486372954761899,False
129,mp-771135,Li(FeO2)2,28,P4_322,-1.6622089269047617,False
130,mp-771571,Li(FeO2)2,28,Cmc2_1,-1.6455866972619038,False
131,mp-773043,Li(FeO2)2,56,P1,-1.6397954008333326,False
132,mp-754917,Li(NiO2)2,28,P6_3mc,-1.1578536019047618,False
133,mp-774941,Li(NiO2)2,56,P4_332,-1.213934436011905,True
134,mp-1222821,Li(NiO2)3,20,C2/m,-1.0397980808333322,False
135,mp-530628,Li10Mn21O48,79,C2/m,-1.8886004863276586,False
136,mp-531323,Li10Mn23O48,81,Cm,-1.938841662416631,False
137,mp-1223041,Li11(MoO2)12,47,P-1,-1.941508219929078,False
138,mp-38676,Li11(NiO2)12,47,C2/m,-1.4387636222695026,False
139,mp-769472,Li11(NiO4)2,42,C2,-1.8280032469841272,False
140,mp-1178085,Li11Fe5(OF11)2,40,P1,-2.8444900129166664,False
141,mp-531021,Li11Mn13O32,56,C2/m,-2.0280938996387525,False
142,mp-779771,Li11Mn6O16,66,P1,-2.1098358743712993,False
143,mp-769524,Li11Nb4(Ni3O8)3,48,P1,-2.1005356338888888,False
144,mp-758517,Li11Ni13O24,48,C2/m,-1.456841668888888,False
145,mp-760001,Li11Ti12(NiO8)4,59,R32,-2.8532186396045196,False
146,mp-771347,Li11Ti4Fe9O32,56,P1,-2.0904309082142865,False
147,mp-760216,Li11Ti4Mn12O32,59,C2,-2.3795180355113974,False
148,mp-769463,Li11Ti8Fe5O32,56,P1,-2.5713336229166655,False
149,mp-774644,Li11V12(CuO4)12,83,C2/m,-1.9339346771887551,False
150,mp-776317,Li11V12(OF)24,71,P1,-2.6341170858685445,False
151,mp-758440,Li11V16O32,59,P1,-2.4742477806214693,False
152,mp-1178094,Li11V6O5F19,41,P1,-2.988066423211382,False
153,mp-777270,Li11V6O5F19,41,P1,-2.9934686432113824,False
154,mp-777521,Li11V6O5F19,41,P1,-2.98487978004065,False
155,mp-778354,Li11V6O5F19,41,P1,-2.9805345856504064,False
156,mp-779345,Li11V6O5F19,41,P1,-2.989278392479675,False
157,mp-780480,Li11V6O5F19,41,P1,-2.987490435650406,False
158,mp-849591,Li11V6O5F19,41,P1,-2.9977959078455285,False
159,mp-760142,Li12Fe5O16,33,P1,-1.817264879393939,False
160,mp-753075,Li12Mn2O9,23,P1,-2.02455656058096,False
161,mp-1199885,Li12Mo5O17,68,P-1,-2.1669398734558816,False
162,mp-759703,Li12Ni11O28,51,P1,-1.2973071647058814,False
163,mp-753008,Li13(FeO6)2,27,P1,-1.8246352879012344,False
164,mp-759819,Li13Mn17O40,70,C2/m,-2.043183260402298,False
165,mp-530398,Li13Mn21O48,82,Cm,-2.0105717034132327,False
166,mp-1653421,Li13Mn2O9,48,P1,-2.017569161945641,False
167,mp-764770,Li13Mn2O9,48,P1,-2.0203129011123075,False
168,mp-764234,Li13Mn3Nb2O16,34,Cm,-2.318482571386072,False
169,mp-758228,Li13Mn8O24,45,C2,-2.01400534903959,False
170,mp-758586,Li13Mn8O24,45,P2/m,-2.0078473959284797,False
171,mp-758698,Li13Mn8O24,45,P-1,-2.012045293261813,False
172,mp-757347,Li13Ni15O28,56,P-1,-1.4663071575595232,False
173,mp-766878,Li13Ni15O28,56,P-1,-1.4654593470238093,False
174,mp-769473,Li13Ni9O22,44,P-1,-1.5249373674621212,False
175,mp-777360,Li13V24O52,89,P1,-2.418543262846442,False
176,mp-781016,Li14Fe4O13,62,P2_1/c,-1.9220454207795687,False
177,mp-770530,Li14Mn2O9,50,P-3,-2.00801047280115,False
178,mp-758099,Li15(FeO6)2,29,P1,-1.9097425010344824,False
179,mp-705910,Li15(NiO2)14,57,Cm,-1.4746562129824563,False
180,mp-758672,Li15Mn2O12,29,P1,-2.0241580977883475,False
181,mp-760337,Li16Mn15(CuO12)3,70,P1,-1.9767981328899833,False
182,mp-757655,Li17Ni11O28,56,P-1,-1.5345692401190476,False
183,mp-766611,Li17Ni11O28,56,P-1,-1.4983429333333333,False
184,mp-761629,Li17V16O32,65,Cm,-2.4420341119487183,False
185,mp-698842,Li19Ni23O42,84,P-1,-1.4629649441468255,False
186,mp-1223171,Li19V12O32,63,Cm,-2.4394652421164027,False
187,mp-1178060,Li2(FeO2)3,22,Cmce,-1.7085720410606058,False
188,mp-752883,Li2(FeO2)3,22,Fddd,-1.739573396969697,False
189,mp-762575,Li2(FeO2)3,22,P1,-1.7278834410606059,False
190,mp-753296,Li2(NiO2)3,22,Cc,-1.269572469696969,False
191,mp-755410,Li2(NiO2)3,22,Cmce,-1.2392251974242419,False
192,mp-758095,Li2(NiO2)3,22,P-1,-1.2929233442424235,False
193,mp-758726,Li2(NiO2)3,66,P1,-1.2750526284848485,False
194,mp-758831,Li2(NiO2)3,22,Cc,-1.2765219978787883,False
195,mp-773252,Li2(NiO2)3,22,Aea2,-1.2587059319696967,False
196,mp-769519,Li21(FeO4)4,41,C2,-1.9971009356097553,False
197,mp-530102,Li21Mo11O32,64,C2/m,-2.10789789546875,False
198,mp-705828,Li23Ni17O40,80,P-1,-1.5133932619583326,False
199,mp-849448,Li2Fe2CuO6,33,P1,-1.5457636774242423,False
200,mp-755474,Li2Fe2OF6,22,P-1,-2.666374640833333,False
201,mp-768294,Li2Fe3CuO8,28,P6_3mc,-1.493885418690476,False
202,mp-772934,Li2Fe3CuO8,56,P2_13,-1.495597212261904,False
203,mp-774280,Li2Fe3CuO8,56,P1,-1.4937457672619041,False
204,mp-775479,Li2Fe3CuO8,56,P4_332,-1.5379491877976181,False
205,mp-849572,Li2Fe3OF6,48,P1,-2.5211940378472217,False
206,mp-761257,Li2Fe4OF8,30,P-1,-2.5175319142777774,False
207,mp-849678,Li2Fe4OF8,60,Cc,-2.502728768111111,False
208,mp-849951,Li2Fe4OF8,30,Cc,-2.5398349476111104,False
209,mp-1177943,Li2FeO2,20,C2/m,-1.8345361633333332,False
210,mp-1272755,Li2FeO2,20,P2_1/c,-1.833947328833333,False
211,mp-754868,Li2FeO2,20,P-3m1,-1.823619152833333,False
212,mp-755094,Li2FeO2,20,Immm,-1.8762546713333328,False
213,mp-775979,Li2FeO2F,24,C2/c,-2.2559343948611112,False
214,mp-780202,Li2FeO2F,24,Pnma,-2.315761286944444,False
215,mp-780532,Li2FeO2F,24,C2/c,-2.2627288761111113,False
216,mp-850404,Li2FeO2F,24,C2,-2.291595465277778,False
217,mp-1303136,Li2FeO3,24,P-1,-1.8750160015277786,False
218,mp-759394,Li2FeO3,24,Pnna,-1.8089428036111108,False
219,mp-774155,Li2FeO3,24,C2,-1.8758079140277772,True
220,mp-887724,Li2FeO3,24,C2/m,-1.8722945886111102,False
221,mp-755818,Li2FeOF3,28,C2/m,-2.658749944166666,False
222,mp-764977,Li2FeOF3,28,Pc,-2.6403515480952384,False
223,mp-780672,Li2FeOF3,28,Cm,-2.6677142609523807,False
224,mp-850401,Li2FeOF3,28,P4_1,-2.679394506309524,False
225,mp-752597,Li2Mn2OF6,22,P1,-2.7751548990935215,False
226,mp-752982,Li2Mn2OF6,22,P-1,-2.749978617729886,False
227,mp-753441,Li2Mn2OF6,22,C2/c,-2.7486789909117038,False
228,mp-753723,Li2Mn2OF6,22,P-1,-2.8118927063662493,False
229,mp-753742,Li2Mn2OF6,22,Cc,-2.7710928654571587,False
230,mp-772456,Li2Mn3CuO8,28,Cc,-1.817597606818555,False
231,mp-773062,Li2Mn3CuO8,56,P1,-1.8632487844971268,False
232,mp-775165,Li2Mn3CuO8,56,P2_12_12_1,-1.8475965196756985,False
233,mp-1275582,Li2Mn3NbO8,28,P-1,-2.3356151061042687,False
234,mp-1287629,Li2Mn3NbO8,28,Cm,-2.3249553893185544,False
235,mp-1301502,Li2Mn3NbO8,28,P2_1/c,-2.332364973604268,False
236,mp-1304290,Li2Mn3NbO8,28,C2/m,-2.3369238821756966,False
237,mp-754248,Li2Mn3NbO8,28,R-3m,-2.295841505747126,False
238,mp-756486,Li2Mn3NbO8,28,Cc,-2.357298830389983,False
239,mp-774515,Li2Mn3NbO8,56,P4_332,-2.30829502128284,False
240,mp-1003313,Li2Mn3O6,22,C2/m,-2.0585488314054343,False
241,mp-752668,Li2Mn3O6,22,Cc,-2.0339721273145246,False
242,mp-754532,Li2Mn3O6,22,Cmce,-2.00519539276907,False
243,mp-758273,Li2Mn3O6,44,P1,-2.016687250269071,False
244,mp-758757,Li2Mn3O6,66,P1,-2.0405663480721,False
245,mp-762412,Li2Mn3O6,22,C2/m,-2.071562083678161,False
246,mp-770534,Li2Mn3O7,24,P-1,-2.0090985494133142,False
247,mp-759714,Li2Mn3OF6,48,P1,-2.7924784392049813,False
248,mp-761162,Li2Mn3OF6,24,P-1,-2.791435404413315,False
249,mp-704943,Li2Mn3ZnO8,56,P2_13,-2.015644154675698,True
250,mp-1178111,Li10Co3Ni7O20,40,C2/m,-1.556630192833333,False
251,mp-769555,Li10Co3Ni7O20,40,P-1,-1.5629833210833333,False
252,mp-759912,Li10CoNi9O20,40,P1,-1.5170083530833325,False
253,mp-769507,Li10CoNi9O20,40,P2/m,-1.5156522150833325,False
254,mp-764265,Li10Mn3V5O16,34,P1,-2.24341679285666,False
255,mp-759959,Li10Mn5Fe3O16,34,P1,-1.9857500439114266,False
256,mp-767746,Li12Mn2Fe3O16,33,P1,-1.9100643553291539,False
257,mp-757774,Li2Co(NiO3)2,22,Aea2,-1.3446923774242416,False
258,mp-754376,Li2Co2NiO6,22,P-1,-1.4215000956060597,False
259,mp-1290435,Li2Co3NiO8,28,P-1,-1.3604135133333324,False
260,mp-756196,Li2Co3NiO8,28,P6_3mc,-1.431430379404762,False
261,mp-757851,Li2Co3NiO8,56,P4_332,-1.3580704845833336,False
262,mp-1178037,Li2CoNi3O8,56,P1,-1.2880984820833328,False
263,mp-775285,Li2CoNi3O8,56,P2_12_12_1,-1.2814146492261895,False
264,mp-887677,Li2CoNi3O8,56,P4_132,-1.241651586369047,False
265,mp-759297,Li2Mn(FeO3)2,33,P-1,-1.8921554248119123,False
266,mp-1571056,Li2Mn2FeO6,22,C222_1,-1.9477674820480657,False
267,mp-1573004,Li2Mn2FeO6,22,Aea2,-1.9560082320480658,False
268,mp-758874,Li2Mn2FeO6,33,P-1,-1.9725207931086728,False
269,mp-1177949,Li2Mn2V3O12,76,Pbcn,-2.227585734606776,False
270,mp-753998,Li2Mn3(FeO4)3,20,P-1,-1.7533679830229871,False
271,mp-1661410,Li2Mn3FeO8,28,Cc,-1.9738828782471256,False
272,mp-1661760,Li2Mn3FeO8,28,P1,-1.9751506275328399,False
273,mp-1663998,Li2Mn3FeO8,28,Cmc2_1,-1.97726656003284,False
274,mp-1664598,Li2Mn3FeO8,28,P2_1,-1.9752100928899827,False
275,mp-770175,Li2Mn3FeO8,28,P6_3mc,-1.9603686178899824,False
276,mp-775099,Li2Mn3FeO8,56,P4_332,-1.95493614628284,False
277,mp-777396,Li2Mn3FeO8,56,P4_32_12,-2.001575833961411,False
278,mp-1177922,Li2Mn3VO8,56,P2_12_12_1,-2.1869679153899844,False
279,mp-781772,Li2Mn3VO8,28,Cmc2_1,-2.166359363247127,False
280,mp-849953,Li2Mn3VO8,56,P2_1,-2.1816901414614125,False
281,mp-769550,Li2Mn5(FeO6)2,42,Cc,-1.9531462772058015,False
282,mp-770757,Li2MnFe3O8,28,P6_3mc,-1.780116741042692,False
283,mp-773804,Li2MnFe3O8,56,P4_332,-1.8158927310426927,False
284,mp-753136,Li2MnV2O6,22,P-1,-2.3322342408725176,False
285,mp-1177891,Li2MnV3O8,56,R3,-2.4335706801498347,False
286,mp-1178076,Li2MnV3O8,56,P1,-2.408324843364121,False
287,mp-1275702,Li2MnV3O8,28,Cc,-2.424280692828406,False
288,mp-1290626,Li2MnV3O8,28,C2/c,-2.3952470835426922,False
289,mp-1293023,Li2MnV3O8,28,C2/c,-2.3940275806855493,False
290,mp-1296412,Li2MnV3O8,28,C2/m,-2.3904874963998353,False
291,mp-1302458,Li2MnV3O8,28,R3c,-2.4245199542569784,False
292,mp-1315650,Li2MnV3O8,28,C2/c,-2.3942804199712637,False
293,mp-775278,Li2MnV3O8,28,P31c,-2.426966807471264,False
294,mp-775327,Li2MnV3O8,56,P2_13,-2.4349469499712635,False
295,mp-775492,Li2MnV3O8,56,P2_12_12_1,-2.411432463721264,False
296,mp-774824,Li2MnV4CuO12,20,C2,-2.2010633612298833,False
297,mp-756928,Li2MnVO4,24,P-1,-2.3064988409913796,False
298,mp-760869,Li3Co(NiO3)2,24,C2/c,-1.5336782395833335,False
299,mp-1177722,Li3Co2Ni3O10,36,P2/m,-1.3280673377777776,False
300,mp-1273342,Li3Co2NiO6,24,P1,-1.5867787562500002,False
301,mp-1274234,Li3Co2NiO6,24,P1,-1.614121023749999,False
302,mp-1276403,Li3Co2NiO6,24,Cm,-1.6296687258333329,False
303,mp-1286317,Li3Co2NiO6,24,P1,-1.5998056454166676,False
304,mp-1301359,Li3Co2NiO6,24,P2_1/m,-1.651744048750001,False
305,mp-765538,Li3Co2NiO6,24,C2/m,-1.6568031237499994,False
306,mp-764661,Li3CoNi3O8,30,P31c,-1.3697396783333338,False
307,mp-774300,Li3CoNi3O8,45,P-1,-1.4237684097777774,False
308,mp-774814,Li3Mn2V3O12,80,P2_1/c,-2.302056938418103,False
309,mp-757617,Li3Mn2V5O12,22,C2,-2.3333134470846373,False
310,mp-755092,Li3Mn2VO6,24,C2/m,-2.2503278713218395,False
311,mp-763959,Li3Mn3FeO8,30,P1,-1.9725385495862071,False
312,mp-769530,Li3Mn4(FeO6)2,42,P-1,-1.9838503884154342,False
313,mp-849955,Li3Mn5(FeO6)2,66,P1,-1.9394734214994778,False
314,mp-774685,Li3Mn5FeO12,42,C2/c,-2.0234314683169132,False
315,mp-759988,Li3MnFe3O8,30,P6_3mc,-1.8982182151954021,False
316,mp-773501,Li3MnV2O6,24,C2/m,-2.3656866056609185,False
317,mp-1275845,Li3MnV3O8,30,C2/c,-2.3712374671954013,False
318,mp-1308103,Li3MnV3O8,30,P-1,-2.3691132095287344,False
319,mp-1282819,Li3MnV4O12,20,P1,-2.37235048189655,False
320,mp-1666401,Li3MnV4O12,40,C2,-2.377219736646551,False
321,mp-754783,Li3MnV4O12,20,C2,-2.358036253896551,False
322,mp-756140,Li3MnV4O12,20,P1,-2.350160825896551,False
323,mp-1177650,Li4Co2Ni5O12,69,P1,-1.4103862762318844,False
324,mp-777850,Li4Co3(NiO4)3,22,P-1,-1.4423919769696965,False
325,mp-772319,Li4Co3Ni5O16,28,Cm,-1.299138858333333,False
326,mp-1275876,Li4Co3NiO8,32,C2/m,-1.616578958020833,False
327,mp-1284600,Li4Co3NiO8,32,C2,-1.6164682530208339,False
328,mp-1287572,Li4Co3NiO8,32,P-1,-1.6099145389583338,False
329,mp-1293179,Li4Co3NiO8,32,P-1,-1.6248705773958338,False
330,mp-1303410,Li4Co3NiO8,32,P1,-1.624740827708333,False
331,mp-1307939,Li4Co3NiO8,32,P-1,-1.6295279348958331,False
332,mp-1315383,Li4Co3NiO8,32,R-3m,-1.6240126173958327,False
333,mp-772632,Li4Co5Ni3O16,28,Cm,-1.3062480436904755,False
334,mp-1641824,Li4Co5NiO12,44,C2/m,-1.468007365151515,False
335,mp-1648324,Li4Co5NiO12,44,P1,-1.4831332187878792,False
336,mp-755767,Li4Co5NiO12,44,C2/m,-1.4713487853787888,False
337,mp-756070,Li4CoNi5O12,22,C2/m,-1.2958590724242414,False
338,mp-772703,Li4CoNi5O12,22,C2,-1.3084946778787871,False
339,mp-774612,Li4Mn2Fe3Cu3O16,28,Cm,-1.5429127960426925,False
340,mp-762830,Li4Mn2Nb3V3O16,28,Cm,-2.5942216960426916,False
341,mp-760844,Li4Mn2V3O12,84,P2_1/c,-2.3447021540093043,False
342,mp-759274,Li4Mn2V5O12,46,P2_1,-2.350652941269366,False