,material_id,formula_pretty,nsites,crystal_system,formation_energy_per_atom,is_stable
1667,mp-1175841,Li9Mn2Co5O16,32,P1,-1.8278223014331898,False
1668,mp-1175844,Li9Mn2Co5O16,32,P1,-1.8189836248706897,False
1669,mp-1175845,Li9Mn2Co5O16,32,P1,-1.8299657820581894,False
1670,mp-1175846,Li9Mn2Co5O16,32,P1,-1.8215267267456898,False
1671,mp-1175847,Li9Mn2Co5O16,32,P1,-1.8214027298706892,False
1672,mp-1175848,Li9Mn2Co5O16,32,P1,-1.8237007158081893,False
1673,mp-1175850,Li9Mn2Co5O16,32,P1,-1.81610834362069,False
1674,mp-1175851,Li9Mn2Co5O16,32,P1,-1.8420173473706898,False
1675,mp-1175853,Li9Mn2Co5O16,32,P1,-1.8259699933081892,False
1676,mp-1175859,Li9Mn2Co5O16,32,P1,-1.8284954145581898,False
1677,mp-1175861,Li9Mn2Co5O16,32,P1,-1.8221055423706893,False
1678,mp-1175864,Li9Mn2Co5O16,32,P1,-1.8342319567456897,False
1679,mp-1175865,Li9Mn2Co5O16,32,P1,-1.8302048958081896,False
1680,mp-1175868,Li9Mn2Co5O16,32,P-1,-1.8084335401831897,False
1681,mp-1175870,Li9Mn2Co5O16,32,P1,-1.8245535351831892,False
1682,mp-1175872,Li9Mn2Co5O16,32,P1,-1.8315461136206892,False
1683,mp-1175877,Li9Mn2Co5O16,32,P1,-1.8331840214331896,False
1684,mp-1175878,Li9Mn2Co5O16,32,P1,-1.8328756292456898,False
1685,mp-1175886,Li9Mn2Co5O16,32,P1,-1.8278763045581892,False
1686,mp-1175888,Li9Mn2Co5O16,32,P1,-1.8386324967456895,False
1687,mp-1175891,Li9Mn2Co5O16,32,P1,-1.8310287614331893,False
1688,mp-1175895,Li9Mn2Co5O16,32,P1,-1.8181187523706894,False
1689,mp-1175896,Li9Mn2Co5O16,32,P1,-1.8214535845581894,False
1690,mp-1175901,Li9Mn2Co5O16,32,P1,-1.81125255987069,False
1691,mp-1175902,Li9Mn2Co5O16,32,P1,-1.8157562973706893,False
1692,mp-1175903,Li9Mn2Co5O16,32,P1,-1.8373458536206897,False
1693,mp-1175905,Li9Mn2Co5O16,32,P1,-1.82655359237069,False
1694,mp-1175909,Li9Mn2Co5O16,32,P1,-1.8324209426831892,False
1695,mp-1175910,Li9Mn2Co5O16,32,P1,-1.8112000651831899,False
1696,mp-1175917,Li9Mn2Co5O16,32,P1,-1.8121950323706892,False
1697,mp-1175919,Li9Mn2Co5O16,32,P1,-1.8162547770581892,False
1698,mp-1175920,Li9Mn2Co5O16,32,P1,-1.8108904776831896,False
1699,mp-1175921,Li9Mn2Co5O16,32,P1,-1.8072945704956895,False
1700,mp-1175923,Li9Mn2Co5O16,32,P1,-1.830059909558189,False
1701,mp-1175929,Li9Mn2Co5O16,32,P1,-1.8137050861206898,False
1702,mp-1175930,Li9Mn2Co5O16,32,P1,-1.8234516498706892,False
1703,mp-1175936,Li9Mn2Co5O16,32,P1,-1.8116023364331895,False
1704,mp-1175942,Li9Mn2Co5O16,32,P1,-1.8145466723706898,False
1705,mp-1175946,Li9Mn2Co5O16,32,P1,-1.82064901143319,False
1706,mp-1175947,Li9Mn2Co5O16,32,P1,-1.8227718701831899,False
1707,mp-1175950,Li9Mn2Co5O16,32,P1,-1.8249139789331892,False
1708,mp-1175953,Li9Mn2Co5O16,32,P1,-1.8288256134644394,False
1709,mp-1175955,Li9Mn2Co5O16,32,P1,-1.8259760879956897,False
1710,mp-1175965,Li9Mn2Co5O16,32,P1,-1.8237337748706892,False
1711,mp-1175968,Li9Mn2Co5O16,32,P1,-1.8120449495581896,False
1712,mp-1175969,Li9Mn2Co5O16,32,P1,-1.8070675911206893,False
1713,mp-1175970,Li9Mn2Co5O16,32,P1,-1.8203639098706894,False
1714,mp-1175975,Li9Mn2Co5O16,32,P1,-1.8304647214331897,False
1715,mp-1175976,Li9Mn2Co5O16,32,P1,-1.8107390504956893,False
1716,mp-1175978,Li9Mn2Co5O16,32,P1,-1.8223574133081897,False
1717,mp-1175982,Li9Mn2Co5O16,32,P1,-1.81615819143319,False
1718,mp-1175987,Li9Mn2Co5O16,32,P1,-1.82131373643319,False
1719,mp-1175994,Li9Mn2Co5O16,32,P1,-1.8122570048706894,False
1720,mp-1175996,Li9Mn2Co5O16,32,P1,-1.8145630419019394,False
1721,mp-1175998,Li9Mn2Co5O16,32,P1,-1.808158484870689,False
1722,mp-1176001,Li9Mn2Co5O16,32,P1,-1.82905124518319,False
1723,mp-1176002,Li9Mn2Co5O16,32,P1,-1.8087101733081896,False
1724,mp-1176003,Li9Mn2Co5O16,32,P1,-1.8142095473706892,False
1725,mp-1176004,Li9Mn2Co5O16,32,P1,-1.8175366592456896,False
1726,mp-1176008,Li9Mn2Co5O16,32,P1,-1.8132059476831897,False
1727,mp-1176009,Li9Mn2Co5O16,32,P1,-1.8216796970581894,False
1728,mp-1176011,Li9Mn2Co5O16,32,P1,-1.8173937236206896,False
1729,mp-1176014,Li9Mn2Co5O16,32,P1,-1.8234027029956899,False
1730,mp-1176020,Li9Mn2Co5O16,32,P1,-1.809521568308189,False
1731,mp-1176021,Li9Mn2Co5O16,32,P1,-1.8170024154956899,False
1732,mp-1176022,Li9Mn2Co5O16,32,P1,-1.8128684198706893,False
1733,mp-1176025,Li9Mn2Co5O16,32,P1,-1.8119189586206899,False
1734,mp-1176030,Li9Mn2Co5O16,32,P1,-1.8156428004956897,False
1735,mp-1176031,Li9Mn2Co5O16,32,P1,-1.8298560345581896,False
1736,mp-1176034,Li9Mn2Co5O16,32,P1,-1.8103601939331897,False
1737,mp-1176035,Li9Mn2Co5O16,32,P1,-1.8138830073706895,False
1738,mp-1176036,Li9Mn2Co5O16,32,P1,-1.8166936997144392,False
1739,mp-1176038,Li9Mn2Co5O16,32,P1,-1.8128209648706894,False
1740,mp-1176040,Li9Mn2Co5O16,32,P1,-1.8110060754956896,False
1741,mp-1176044,Li9Mn2Co5O16,32,P1,-1.8253636661206896,False
1742,mp-1176045,Li9Mn2Co5O16,32,P1,-1.8120632814331898,False
1743,mp-1176051,Li9Mn2Co5O16,32,P1,-1.8130979104956895,False
1744,mp-1176053,Li9Mn2Co5O16,32,P1,-1.8101745711206894,False
1745,mp-1176058,Li9Mn2Co5O16,32,P1,-1.8081119067456894,False
1746,mp-1176060,Li9Mn2Co5O16,32,P1,-1.815559804245689,False
1747,mp-1176075,Li9Mn2Co5O16,32,P1,-1.8183370064331896,False
1748,mp-1176082,Li9Mn2Co5O16,32,P1,-1.8274496008081895,False
1749,mp-1176086,Li9Mn2Co5O16,32,P1,-1.8120014179956891,False
1750,mp-1176091,Li9Mn2Co5O16,32,P1,-1.8223791165894392,False
1751,mp-1176126,Li9Mn2Co5O16,32,P1,-1.8089788179956896,False
1752,mp-1176136,Li9Mn2Co5O16,32,P1,-1.8233096108081899,False
1753,mp-1176139,Li9Mn2Co5O16,32,P1,-1.8186020517456898,False
1754,mp-1176143,Li9Mn2Co5O16,32,P1,-1.829116532683189,False
1755,mp-1176146,Li9Mn2Co5O16,32,P1,-1.81367184237069,False
1756,mp-1176151,Li9Mn2Co5O16,32,P1,-1.8206804261206893,False
1757,mp-1176155,Li9Mn2Co5O16,32,P1,-1.8149020698706897,False
1758,mp-1176162,Li9Mn2Co5O16,32,P1,-1.8108746983081891,False
1759,mp-1176188,Li9Mn2Co5O16,32,P1,-1.8182468958081897,False
1760,mp-1176199,Li9Mn2Co5O16,32,P1,-1.8139055798706893,False
1761,mp-1176222,Li9Mn2Co5O16,32,P1,-1.80946270174569,False
1762,mp-1176224,Li9Mn2Co5O16,32,P1,-1.8208159067456897,False
1763,mp-1176229,Li9Mn2Co5O16,32,P1,-1.8110653848706892,False
1764,mp-1176232,Li9Mn2Co5O16,32,P1,-1.8074708995581892,False
1765,mp-1176240,Li9Mn2Co5O16,32,P2,-1.8284185826831898,False
1766,mp-1176242,Li9Mn2Co5O16,32,C2/m,-1.8448848929956894,False
1767,mp-1176247,Li9Mn2Co5O16,32,P1,-1.8259317973706892,False
1768,mp-1176249,Li9Mn2Co5O16,32,P1,-1.8195443370581899,False
1769,mp-1176255,Li9Mn2Co5O16,32,C2/m,-1.8378338029956893,False
1770,mp-1176265,Li9Mn2Co5O16,32,C2/m,-1.8379829392456895,False
1771,mp-1176273,Li9Mn2Co5O16,32,P2,-1.82221615299569,False
1772,mp-1176275,Li9Mn2Co5O16,32,C2/m,-1.8467463314331898,False
1773,mp-1176277,Li9Mn2Co5O16,32,C2/m,-1.8413870570581894,False
1774,mp-1176280,Li9Mn2Co5O16,32,P2,-1.8511382461206898,False
1775,mp-1176283,Li9Mn2Co5O16,32,C2/m,-1.8364383417456898,False
1776,mp-1176285,Li9Mn2Co5O16,32,C2/m,-1.8422010748706894,False
1777,mp-1176286,Li9Mn2Co5O16,32,C2/m,-1.84085888768319,False
1778,mp-1176287,Li9Mn2Co5O16,32,C2/m,-1.8498120901831898,False
1779,mp-1176290,Li9Mn2Co5O16,32,P1,-1.8179235467456891,False
1780,mp-1176291,Li9Mn2Co5O16,32,C2/m,-1.8128173979956896,False
1781,mp-1176292,Li9Mn2Co5O16,32,P2,-1.8348543258081893,False
1782,mp-1176295,Li9Mn2Co5O16,32,P2,-1.8288419451831892,False
1783,mp-1176296,Li9Mn2Co5O16,32,C2/m,-1.8337921092456897,False
1784,mp-1176299,Li9Mn2Co5O16,32,P2,-1.8215914111206892,False
1785,mp-1176300,Li9Mn2Co5O16,32,P2,-1.8098058867456892,False
1786,mp-1176302,Li9Mn2Co5O16,32,P2,-1.8128667348706893,False
1787,mp-1176304,Li9Mn2Co5O16,32,C2/m,-1.8196037536206893,False
1788,mp-1176305,Li9Mn2Co5O16,32,P2,-1.8234323004956892,False
1789,mp-1176308,Li9Mn2Co5O16,32,C2/m,-1.8481965148706898,False
1790,mp-1176309,Li9Mn2Co5O16,32,C2/m,-1.8261156401831897,False
1791,mp-1176310,Li9Mn2Co5O16,32,C2/m,-1.8244691704956892,False
1792,mp-1176313,Li9Mn2Co5O16,32,P2,-1.8091053211206898,False
1793,mp-1176314,Li9Mn2Co5O16,32,C2/m,-1.8374052489331891,False
1794,mp-1176315,Li9Mn2Co5O16,32,P2,-1.8108830658081896,False
1795,mp-1176316,Li9Mn2Co5O16,32,C2/m,-1.8148977539331899,False
1796,mp-1176320,Li9Mn2Co5O16,32,P2,-1.8290109664331897,False
1797,mp-1232429,Li9Mn2Co5O16,32,P-1,-1.8471323226831897,False
1798,mp-1232437,Li9Mn2Co5O16,32,P2,-1.8329772023706896,False
1799,mp-780459,Li9Mn7Cr12O48,76,P1,-1.911262371651542,False
1800,mp-851099,Li9Mn7Cr12O48,76,P1,-1.913352421388384,False
1801,mp-770674,Li9V12Fe7O48,76,P1,-2.0878785775,False
1802,mp-850893,Li9V12Fe7O48,76,P1,-2.090852952631578,False
1803,mp-561087,LiFe(MoO4)2,24,P-1,-1.9881079786111115,False
1804,mp-1287546,LiMnCo3O8,26,C2/m,-1.455712737789566,False
1805,mp-1296423,LiMnCo3O8,26,C2/m,-1.4570015120203352,False
1806,mp-1303340,LiMnCo3O8,26,Pm,-1.432675293943412,False
1807,mp-1313454,LiMnCo3O8,26,P2/m,-1.450604944328028,False
1808,mp-1314136,LiMnCo3O8,26,P-1,-1.440612458174182,False
1809,mp-755862,LiMnCo3O8,26,C2/m,-1.4470743470203353,False
1810,mp-756037,LiMnCo3O8,26,R-3m,-1.4605178462511044,False
1811,mp-766078,LiV3Fe2CuO12,38,P1,-2.038248302280701,False
1812,mp-775811,LiVFeO4,28,P4_322,-2.160316424404762,False
1813,mp-754142,Li2Mn4O5F3,28,Cc,-2.374562900956487,False
1814,mp-770527,Li2Mn4O9,30,P-3c1,-1.8990358547260542,False
1815,mp-759945,Li2Mn4OF8,60,P2_12_12,-2.7983582202260546,False
1816,mp-761138,Li2Mn4OF8,30,Cc,-2.816241318059386,False
1817,mp-764374,Li2Mn4OF8,30,P-1,-2.8094150743927204,False
1818,mp-849474,Li2Mn5(CuO6)2,42,P2_1,-1.734570196015325,False
1819,mp-758668,Li2Mn5O12,38,Cc,-1.7607112048064124,False
1820,mp-758656,Li2Mn7O12,42,P2_1,-2.0024049131992325,False
1821,mp-760025,Li2MnCu3O8,56,P4_332,-1.3483240272926926,False
1822,mp-1280924,Li2MnO2,20,C2/m,-1.97368293091954,False
1823,mp-1275135,Li2MnO2F,24,C2/c,-2.4662314224329496,False
1824,mp-1280554,Li2MnO2F,24,C2/m,-2.4868384782662827,False
1825,mp-1295085,Li2MnO2F,24,C2/c,-2.46035815993295,False
1826,mp-1305321,Li2MnO2F,24,P-1,-2.4868082978496164,False
1827,mp-1574529,Li2MnO2F,24,Pnma,-2.457509082849617,False
1828,mp-1643079,Li2MnO2F,24,Immm,-2.4573115199329503,False
1829,mp-752464,Li2MnO2F,24,Cc,-2.3972935103496167,False
1830,mp-753352,Li2MnO2F,24,P-1,-2.404291374516283,False
1831,mp-753359,Li2MnO2F,24,P1,-2.402983478266283,False
1832,mp-753364,Li2MnO2F,24,P1,-2.4014294049329497,False
1833,mp-753659,Li2MnO2F,24,Cmcm,-2.4192524199329495,False
1834,mp-753733,Li2MnO2F,24,Pnma,-2.451043035766283,False
1835,mp-753900,Li2MnO2F,24,Cc,-2.4050423978496167,False
1836,mp-753913,Li2MnO2F,24,C2/c,-2.401304160766283,False
1837,mp-753961,Li2MnO2F,24,C2,-2.40456217618295,False
1838,mp-756688,Li2MnO2F,24,Cmcm,-2.4166458599329492,False
1839,mp-759509,Li2MnO2F,24,C2/c,-2.4513639399329494,False
1840,mp-759973,Li2MnO2F,24,C2/c,-2.4045754657662837,False
1841,mp-760112,Li2MnO2F,24,Pnma,-2.4456312607662833,False
1842,mp-765951,Li2MnO2F,24,C2,-2.4141156957662826,False
1843,mp-850216,Li2MnO2F,24,C2/c,-2.400454317016283,False
1844,mp-1173926,Li2MnO3,24,C2/m,-2.117068879516283,False
1845,mp-1173939,Li2MnO3,24,C2/m,-2.1126867182662834,False
1846,mp-18988,Li2MnO3,24,C2/m,-2.1779613711829513,True
1847,mp-1275120,Li2MnOF3,28,P-1,-2.757534330299671,False
1848,mp-753252,Li2MnOF3,28,C2,-2.7674757567282424,False
1849,mp-753282,Li2MnOF3,28,C2/m,-2.798352661013957,False
1850,mp-753588,Li2MnOF3,28,C2/m,-2.750690096728243,False
1851,mp-753603,Li2MnOF3,28,Pmc2_1,-2.7553906681568137,False
1852,mp-753753,Li2MnOF3,28,P4_1,-2.795269532442528,False
1853,mp-765036,Li2MnOF3,28,Pc,-2.7404331977996716,False
1854,mp-27222,Li2Mo4O13,57,P-1,-2.0417699974561407,False
1855,mp-557229,Li2Mo4O13,57,P-1,-2.0388722851315784,False
1856,mp-1223324,Li2MoO3,48,P-1,-2.1341079629861106,False
1857,mp-698666,Li2MoO3,48,P1,-2.102513955069444,False
1858,mp-18050,Li2MoO4,42,R-3,-2.270608244523807,True
1859,mp-759780,Li2Nb6NiO18,54,P1,-2.672112705246914,False
1860,mp-769462,Li2Nb6NiO18,54,P1,-2.669591151172841,False
1861,mp-760364,Li2NbFe3O8,56,P4_332,-2.1570335217261905,False
1862,mp-775011,Li2NbFe3O8,28,P6_3mc,-2.18020397547619,False
1863,mp-776115,Li2NbFe3O8,28,R-3m,-2.1587570701190475,False
1864,mp-771953,Li2NbNi3O8,28,P6_3mc,-1.7733006508333335,False
1865,mp-772509,Li2NbV3O8,28,R-3m,-2.641722383333333,False
1866,mp-772854,Li2NbV3O8,56,P4_332,-2.640247679404761,False
1867,mp-777682,Li2NbV3O8,28,P6_3mc,-2.6478946369047613,False
1868,mp-765224,Li2Ni4OF8,30,Cc,-2.322883810611111,False
1869,mp-1177872,Li2Ni5O9,32,P1,-1.1735288108854167,False
1870,mp-1272313,Li2NiO2F,24,C2/m,-2.051697127361111,False
1871,mp-1283454,Li2NiO2F,24,P1,-2.047601769027778,False
1872,mp-764731,Li2NiO2F,24,Cc,-1.9632309911111114,False
1873,mp-765501,Li2NiO2F,24,C2,-1.9838622486111113,False
1874,mp-674420,Li2NiO3,24,C2/c,-1.582657234444449,False
1875,mp-758964,Li2Ti(FeO3)2,33,C2/m,-2.3210226834848484,False
1876,mp-758759,Li2Ti(NiO3)2,33,C2/m,-2.0028714543939388,False
1877,mp-753064,Li2Ti2FeO6,22,Cmce,-2.7698934212121213,False
1878,mp-1273561,Li2Ti2Mn3O10,34,P-1,-2.5426813518897906,False
1879,mp-1302395,Li2Ti2Mn3O10,34,P1,-2.53644404071332,False
1880,mp-758979,Li2Ti2Mn5O12,42,P2_1,-2.4223258110946904,False
1881,mp-831246,Li2Ti2NiO6,44,Cmce,-2.7185537009848484,False
1882,mp-1275591,Li2Ti2V3O10,34,P-1,-2.8112263887254905,False
1883,mp-1305884,Li2Ti2V3O10,34,P-1,-2.8136017657843144,False
1884,mp-1310605,Li2Ti2V3O10,34,P-1,-2.813006799901961,False
1885,mp-759328,Li2Ti2V3O10,34,P-1,-2.814694448725491,False
1886,mp-754529,Li2Ti2VO6,44,Cmce,-2.9102792521212133,False
1887,mp-758843,Li2Ti2VO6,33,P-1,-2.924048298939393,False
1888,mp-1177863,Li2Ti3FeO8,56,P2_13,-2.942808008154761,False
1889,mp-775306,Li2Ti3FeO8,56,R32,-2.9980033920833327,False
1890,mp-775874,Li2Ti3FeO8,56,P6_3mc,-2.971798597619047,False
1891,mp-1177884,Li2Ti3MnO8,56,R3m,-3.052586627114121,False
1892,mp-756536,Li2Ti3MnO8,28,R-3m,-3.043074317828407,False
1893,mp-774582,Li2Ti3MnO8,56,P4_332,-3.063875531935549,False
1894,mp-775865,Li2Ti3MnO8,56,P2_13,-3.0878813796141213,True
1895,mp-777480,Li2Ti3MnO8,56,P6_3mc,-3.0544464140784067,False
1896,mp-756409,Li2Ti3NiO8,56,R-3m,-2.9406844963690477,False
1897,mp-774680,Li2Ti3NiO8,56,P6_3mc,-2.9147029856547624,False
1898,mp-775326,Li2Ti3NiO8,56,P4_332,-2.9559366827976197,True
1899,mp-776015,Li2Ti3NiO8,56,R3m,-2.9032471290476187,False
1900,mp-753240,Li2Ti3V3O12,40,P-1,-2.865523791583334,False
1901,mp-756158,Li2Ti3VO8,56,R-3m,-3.096307817797619,False
1902,mp-757246,Li2Ti3VO8,28,C2/m,-3.0184978008333334,False
1903,mp-771076,Li2Ti3VO8,28,P6_3mc,-3.0721036440476186,False
1904,mp-775161,Li2Ti3VO8,56,P4_332,-3.1086306695833335,False
1905,mp-1641121,Li2TiFe2O5,20,Cc,-2.3283543372500004,False
1906,mp-754099,Li2TiFe2O5,20,P-1,-2.3069205217500013,False
1907,mp-754166,Li2TiFe2O5,20,C2/m,-2.29682079775,False
1908,mp-756002,Li2TiFe2O5,20,P1,-2.34210398875,False
1909,mp-756567,Li2TiFe2O5,20,C2/c,-2.328892014750001,False
1910,mp-756682,Li2TiFe2O5,20,C2,-2.320184930250001,False
1911,mp-769653,Li2TiFe2O5,20,P1,-2.330511724750001,False
1912,mp-769662,Li2TiFe2O5,20,P-1,-2.319244486250001,False
1913,mp-1277589,Li2TiFe3O8,28,P-1,-2.1495792832142837,False
1914,mp-1290754,Li2TiFe3O8,28,P1,-2.144894957142856,False
1915,mp-1303907,Li2TiFe3O8,28,P-1,-2.146925752142856,False
1916,mp-1306027,Li2TiFe3O8,28,P-1,-2.1288814003571415,False
1917,mp-771820,Li2TiFe3O8,28,P6_3mc,-2.1357906974999983,False
1918,mp-775316,Li2TiFe3O8,56,P1,-2.14426835517857,False
1919,mp-776147,Li2TiFe3O8,56,P2_1,-2.13217264517857,False
1920,mp-1177837,Li2TiFeO4,32,I4/mmm,-2.5268197868749986,False
1921,mp-1177839,Li2TiFeO4,32,I-4m2,-2.5507260628124993,False
1922,mp-1273123,Li2TiFeO4,32,P1,-2.566141746562499,False
1923,mp-1277038,Li2TiFeO4,32,C2,-2.563684160624999,False
1924,mp-1278188,Li2TiFeO4,32,P1,-2.562454359687499,False
1925,mp-1285981,Li2TiFeO4,32,C2/m,-2.5654897759374986,False
1926,mp-1290397,Li2TiFeO4,32,C2/c,-2.5600393478124994,False
1927,mp-1290528,Li2TiFeO4,32,Pnma,-2.5660741084374994,False
1928,mp-1301347,Li2TiFeO4,32,P1,-2.5638176671874993,False
1929,mp-1304342,Li2TiFeO4,32,C2,-2.558107215312499,False
1930,mp-1306478,Li2TiFeO4,32,Cc,-2.5680901024999994,False
1931,mp-754391,Li2TiFeO4,32,P2/m,-2.5587734340624992,False
1932,mp-765697,Li2TiFeO4,32,Imm2,-2.557033564374999,False
1933,mp-769658,Li2TiFeO4,32,Cc,-2.5614992649999992,False
1934,mp-769659,Li2TiFeO4,32,P1,-2.526276782499999,False
1935,mp-770956,Li2TiMn2O5,20,C2,-2.5228471143362072,False
1936,mp-770961,Li2TiMn2O5,20,C2,-2.511219578836207,False
1937,mp-761095,Li2TiMn2O6,66,P2_1/c,-2.452669695835946,False
1938,mp-776053,Li2TiMn2O6,22,Cmce,-2.4680295064420052,False
1939,mp-758872,Li2TiMn3O8,42,P-1,-2.3330911478899843,False
1940,mp-771575,Li2TiMn3O8,28,Cmc2_1,-2.3795922699137932,False
1941,mp-775166,Li2TiMn3O8,56,P1,-2.3910035556280786,False
1942,mp-754547,Li2TiMnO4,32,I-4m2,-2.6698767025538803,False
1943,mp-754914,Li2TiMnO4,32,P2/m,-2.6629330341163797,False
1944,mp-755668,Li2TiMnO4,32,Imma,-2.66180953724138,False
1945,mp-755348,Li2TiNi2O5,20,C2/c,-2.2289872812500007,False
1946,mp-770851,Li2TiNi2O5,20,C2,-2.2265677097500003,False
1947,mp-770852,Li2TiNi2O5,20,C2,-2.2347710902499998,False
1948,mp-775328,Li2TiNi3O8,56,P2_12_12_1,-1.763398671607142,False
1949,mp-764019,Li2TiNiO4,32,Imma,-2.503823481874999,False
1950,mp-1276468,Li2TiV2O6,22,P2_1/m,-2.7331702327272733,False
1951,mp-752814,Li2TiV2O6,22,C2/m,-2.740322502727274,False
1952,mp-754264,Li2TiV2O6,22,Cmce,-2.6878896340909098,False
1953,mp-1177856,Li2TiV3O8,56,P4_32_12,-2.711225272142858,False
1954,mp-1280539,Li2TiV3O8,28,P-1,-2.662049885714286,False
1955,mp-1290921,Li2TiV3O8,28,P-1,-2.719360132142857,False
1956,mp-1302186,Li2TiV3O8,28,P2/c,-2.719106593571429,False
1957,mp-1302630,Li2TiV3O8,28,C2,-2.7197718807142865,False
1958,mp-1304584,Li2TiV3O8,28,P-1,-2.722201631071429,False
1959,mp-1306174,Li2TiV3O8,28,P2_1/m,-2.6598633253571435,False
1960,mp-1306312,Li2TiV3O8,28,C2/m,-2.7181650771428574,False
1961,mp-1313908,Li2TiV3O8,28,P-1,-2.7185088217857145,False
1962,mp-1662321,Li2TiV3O8,28,P1,-2.702497665714286,False
1963,mp-769560,Li2TiV3O8,28,C2/m,-2.659555951785715,False
1964,mp-774631,Li2TiV3O8,56,P2_13,-2.6936498112500007,False
1965,mp-775564,Li2TiV3O8,56,P2_12_12_1,-2.72208113875,False
1966,mp-778325,Li2TiV3O8,28,Cc,-2.7050640425000005,False
1967,mp-1573040,Li2TiV5O12,40,P1,-2.5762695542499996,False
1968,mp-774801,Li2TiV5O12,20,C2,-2.572800031,False
1969,mp-1274020,Li2TiVO4,32,I222,-2.7398633187500003,False
1970,mp-1278198,Li2TiVO4,32,C2/m,-2.7432418134375007,False
1971,mp-1278326,Li2TiVO4,32,P1,-2.7398083412500007,False
1972,mp-1281672,Li2TiVO4,32,C222,-2.7377921518750004,False
1973,mp-1283290,Li2TiVO4,32,I-42m,-2.7416798315625,False
1974,mp-1288258,Li2TiVO4,32,Cm,-2.7330293318750005,False
1975,mp-1288887,Li2TiVO4,32,C2/m,-2.7432975581250005,False
1976,mp-1299584,Li2TiVO4,32,C2/m,-2.7447449412500005,False
1977,mp-1314918,Li2TiVO4,32,C2,-2.744619906875,False
1978,mp-756796,Li2TiVO4,32,Imma,-2.7485055106250007,False
1979,mp-757075,Li2TiVO4,24,P-1,-2.7496993154166667,False
1980,mp-759813,Li2TiVO4,32,P2/m,-2.7486175890625004,False
1981,mp-763993,Li2TiVO4,24,P-1,-2.7394314820833343,False
1982,mp-755429,Li2TiVO5,36,P4/nmm,-2.8059298647222226,False
1983,mp-1280578,Li2V(OF)2,28,C2/c,-2.8128047834523815,False
1984,mp-1302912,Li2V(OF)2,28,Cc,-2.8060802488095242,False
1985,mp-1306444,Li2V(OF)2,28,C2/c,-2.8120950466666668,False
1986,mp-1311685,Li2V(OF)2,28,C2,-2.8045115659523807,False
1987,mp-753161,Li2V(OF)2,28,R3m,-2.836093210595238,False
1988,mp-761125,Li2V(OF)2,28,P2,-2.7991265048809524,False
1989,mp-773021,Li2V12O29,43,C2/m,-2.327688561724806,False
1990,mp-1198472,Li2V18O39,59,C2/m,-2.4032906094774,False
1991,mp-704734,Li2V18O39,59,P1,-2.4055301503248576,False
1992,mp-757124,Li2V2O5F2,22,Cc,-2.541180915833334,False
1993,mp-764224,Li2V2O5F2,22,P-1,-2.54140363628788,False
1994,mp-753071,Li2V2OF6,22,P-1,-3.0305664681060605,False
1995,mp-753637,Li2V2OF6,22,P1,-3.070337526287879,False
1996,mp-759649,Li2V2OF6,22,P-1,-3.0660086335606063,False
1997,mp-1305656,Li2V3(OF)4,26,P1,-2.8116745016666673,False
1998,mp-752838,Li2V3(OF)4,26,Pm,-2.8210809151282055,False
1999,mp-773650,Li2V3CuO8,56,P2_12_12_1,-2.245298681904763,False
2000,mp-773844,Li2V3CuO8,56,P4_3,-2.2314160024404766,False