,material_id,formula_pretty,nsites,crystal_system,formation_energy_per_atom,is_stable
343,mp-1177469,Li4Mn3(FeO4)3,22,P-1,-1.92235511214211,False
344,mp-779210,Li4Mn3Fe2Cu3O16,28,Cm,-1.6269091866830863,False
345,mp-756989,Li4Mn3Fe3(CuO8)2,28,Cm,-1.6829713891830878,False
346,mp-772071,Li4Mn3Fe5O16,28,Cm,-1.8466958313259454,False
347,mp-770941,Li4Mn3Nb2Fe3O16,28,Cm,-2.268049285611659,False
348,mp-774826,Li4Mn3Nb2V3O16,28,Cm,-2.4860505438259444,False
349,mp-775656,Li4Mn3Nb2V3O16,28,P1,-2.5126747902545157,False
350,mp-756039,Li4Mn3V2Cu3O16,28,Cm,-1.8558928273973732,False
351,mp-773187,Li4Mn3V5O16,28,P1,-2.3428361813259437,False
352,mp-1177555,Li4Mn5(Fe2O9)2,62,Pm,-1.8444075763867258,False
353,mp-769449,Li4Mn5(Fe2O9)2,62,P2/m,-1.8439278312254357,False
354,mp-759127,Li4Mn5(FeO6)2,46,P2_1,-1.999876159912544,False
355,mp-772124,Li4Mn5Fe3O16,28,Cm,-1.9264793051067315,False
356,mp-773194,Li4Mn5V3O16,28,P1,-2.2371765415353053,False
357,mp-756559,Li4MnV3O12,20,P2,-2.1960968315632172,False
358,mp-762164,Li4Nb2Co3Ni3O16,28,P1,-1.8777948265476192,False
359,mp-759505,Li4Ti2Co3Ni3O16,28,Cm,-1.8652881674999995,False
360,mp-767370,Li4Ti2Mn3(Fe2O9)2,62,Pbam,-2.1683111362513907,False
361,mp-770495,Li4Ti2Mn3Fe3O16,28,P1,-2.2876120197783263,False
362,mp-770623,Li4Ti2Mn3V3O16,28,P1,-2.5561295687068957,False
363,mp-885334,Li4Ti2Mn3V3O16,28,Cm,-2.5406826308497537,False
364,mp-774494,Li4Ti2Mn4(FeO6)3,62,Pbam,-2.1837031497330357,False
365,mp-763517,Li4Ti3Co3(NiO8)2,28,Cm,-2.143419335119048,False
366,mp-1177270,Li4Ti3Mn2(Fe2O9)2,62,Pmc2_1,-2.3202131109417867,False
367,mp-770371,Li4Ti3Mn2Fe3O16,28,Cm,-2.4342324921141207,False
368,mp-772543,Li4Ti3Mn2V3O16,28,Cm,-2.701237344256979,False
369,mp-773707,Li4Ti3Mn2V3O16,28,P1,-2.7354367024712647,False
370,mp-770508,Li4Ti3Mn3(FeO8)2,28,P1,-2.4782656152545166,False
371,mp-770420,Li4Ti3Mn3V2O16,28,Cm,-2.6488013316830865,False
372,mp-774626,Li4Ti3Mn4(FeO9)2,62,Pmc2_1,-2.3869826527437903,False
373,mp-767373,Li4Ti4Mn(Fe2O9)2,62,Pbam,-2.4770024433741185,False
374,mp-774578,Li4Ti4Mn4FeO18,62,Pbam,-2.5630605436577687,False
375,mp-760073,Li10Mn3Cr5O16,34,P1,-2.1826294793272476,False
376,mp-770492,Li24Mn11CrO36,72,P1,-2.1819053455172415,False
377,mp-770619,Li24Mn11CrO36,72,C2,-2.180620487600575,False
378,mp-770622,Li24Mn11CrO36,72,C2,-2.18138553440613,False
379,mp-770668,Li24Mn11CrO36,72,C2,-2.1818964691283522,False
380,mp-770669,Li24Mn11CrO36,72,C2,-2.1815952812116857,False
381,mp-768726,Li24Mn5Cr7O36,72,P1,-2.207445819856322,False
382,mp-768784,Li24Mn5Cr7O36,72,P1,-2.207592807772988,False
383,mp-768825,Li24Mn5Cr7O36,72,P1,-2.207292961522989,False
384,mp-768842,Li24Mn5Cr7O36,72,P1,-2.208010077356322,False
385,mp-768843,Li24Mn5Cr7O36,72,P1,-2.207273532772989,False
386,mp-768905,Li24Mn5Cr7O36,72,P1,-2.2075264038840996,False
387,mp-768924,Li24Mn5Cr7O36,72,P1,-2.2075701295785444,False
388,mp-769037,Li24Mn5Cr7O36,72,P1,-2.2071103176341,False
389,mp-777958,Li24Mn5Cr7O36,72,P1,-2.206948237772989,False
390,mp-778112,Li24Mn5Cr7O36,72,P1,-2.207912306661877,False
391,mp-768724,Li24Mn7Cr5O36,72,P1,-2.1986143860488507,False
392,mp-768759,Li24Mn7Cr5O36,72,P1,-2.1972246185488506,False
393,mp-768841,Li24Mn7Cr5O36,72,P1,-2.1984095767432956,False
394,mp-768925,Li24Mn7Cr5O36,72,P1,-2.194568518132184,False
395,mp-768929,Li24Mn7Cr5O36,72,P1,-2.198591363826629,False
396,mp-769012,Li24Mn7Cr5O36,72,P1,-2.198928542715518,False
397,mp-770232,Li24Mn7Cr5O36,72,P1,-2.1987994553544064,False
398,mp-777641,Li24Mn7Cr5O36,72,P1,-2.1994427677155173,False
399,mp-777643,Li24Mn7Cr5O36,72,P1,-2.1990482374377396,False
400,mp-780441,Li24Mn7Cr5O36,72,P1,-2.1984231647988506,False
401,mp-1178077,Li24MnCr11O36,72,C2,-2.228227097332375,False
402,mp-770504,Li24MnCr11O36,72,P1,-2.2303592885823766,False
403,mp-770667,Li24MnCr11O36,72,C2,-2.2262049466379303,False
404,mp-770973,Li24MnCr11O36,72,C2,-2.2217080295545975,False
405,mp-770985,Li24MnCr11O36,72,P1,-2.2251993981657083,False
406,mp-1223182,Li2Fe2(MoO4)3,76,Pc,-2.0180592606140344,False
407,mp-21778,Li2Fe2(MoO4)3,76,Pbcn,-2.023951054824561,True
408,mp-754926,Li2Mn2CoO6,22,Cmce,-1.8806055915935218,False
409,mp-779065,Li2Mn2CoO6,22,P-1,-1.8797087093207936,False
410,mp-775291,Li2Mn2Cr3O12,76,Pbcn,-1.9497890448699324,False
411,mp-754774,Li2Mn3(CoO4)3,20,P-1,-1.6796688545229876,False
412,mp-1177935,Li2Mn3CoO8,56,P4_332,-1.8734323773542698,False
413,mp-1287701,Li2Mn3CoO8,28,C2/m,-1.9485866750328416,True
414,mp-1304017,Li2Mn3CoO8,28,P2/m,-1.9480248625328411,False
415,mp-1306790,Li2Mn3CoO8,28,P-1,-1.9139814671756983,False
416,mp-754784,Li2Mn3CoO8,28,P6_3mc,-1.910833238961413,False
417,mp-757513,Li2Mn3CoO8,56,P2_13,-1.9439139091399846,False
418,mp-775679,Li2Mn3CrO8,56,P4_32_12,-2.1409283702114115,False
419,mp-1291754,Li2MnCo3O8,28,P2/c,-1.5757748188998346,False
420,mp-1306729,Li2MnCo3O8,28,C2/c,-1.581538483542692,False
421,mp-757026,Li2MnCo3O8,28,P6_3mc,-1.6146028249712632,False
422,mp-757572,Li2MnCo3O8,56,P4_332,-1.6540126472926926,False
423,mp-761940,Li2MnCo3O8,56,C2,-1.6710863108641212,True
424,mp-1177916,Li2MnCr3O8,56,P4_32_12,-2.2452913058641215,False
425,mp-773456,Li2MnCr3O8,56,P4_332,-2.2205890971141216,False
426,mp-774951,Li2MnCr3O8,56,C222_1,-2.221958870506979,False
427,mp-770856,Li2MnCrO4,64,P-1,-2.258238412137212,False
428,mp-776874,Li2V3(FeO6)2,76,Pbcn,-2.127138744561403,False
429,mp-1177821,Li2V3FeO8,28,Cc,-2.3323151176190473,False
430,mp-773482,Li2V3FeO8,56,P4_3,-2.343719016011904,False
431,mp-774668,Li2V3FeO8,28,P6_3mc,-2.2967068154761896,False
432,mp-775461,Li2V3FeO8,56,P4_32_12,-2.3416223035119046,False
433,mp-775524,Li2V3FeO8,28,Cmc2_1,-2.3326796922619044,False
434,mp-776146,Li2V3FeO8,56,P2_1,-2.3521716792261893,False
435,mp-1177782,Li2VFe3O8,28,P6_3mc,-1.9656177911904749,False
436,mp-772953,Li2VFe3O8,56,P4_332,-1.9861856922619034,False
437,mp-756969,Li2VFeO4,24,P-1,-2.199301198333332,False
438,mp-1177783,Li32Mn11Cr5O48,96,P1,-2.1810954692073743,False
439,mp-1177917,Li32Mn11Cr5O48,96,C2,-2.1932571238948753,False
440,mp-777734,Li32Mn11Cr5O48,96,P1,-2.1817357835823743,False
441,mp-777960,Li32Mn11Cr5O48,96,P1,-2.193161930144875,False
442,mp-778090,Li32Mn11Cr5O48,96,C2,-2.190880407957375,False
443,mp-1177747,Li32Mn13Cr3O48,96,P1,-2.186983663851773,False
444,mp-1177789,Li32Mn13Cr3O48,96,P1,-2.187098168330939,False
445,mp-777750,Li32Mn13Cr3O48,96,P1,-2.187052259685105,False
446,mp-777770,Li32Mn13Cr3O48,96,P1,-2.1871247554142723,False
447,mp-777837,Li32Mn13Cr3O48,96,P1,-2.1868559473934392,False
448,mp-777838,Li32Mn13Cr3O48,96,P1,-2.187195576039272,False
449,mp-777884,Li32Mn13Cr3O48,96,P1,-2.187210417080939,False
450,mp-778088,Li32Mn13Cr3O48,96,P1,-2.1869564226017726,False
451,mp-778110,Li32Mn13Cr3O48,96,P1,-2.1867811570809383,False
452,mp-778189,Li32Mn13Cr3O48,96,P1,-2.1870730699976053,False
453,mp-777576,Li32Mn3Cr13O48,96,P1,-2.2210610469839547,False
454,mp-777691,Li32Mn3Cr13O48,96,P1,-2.2196919002131215,False
455,mp-777797,Li32Mn3Cr13O48,96,P1,-2.2211997082339554,False
456,mp-777826,Li32Mn3Cr13O48,96,P1,-2.220433546879789,False
457,mp-777827,Li32Mn3Cr13O48,96,P1,-2.220860281983956,False
458,mp-777842,Li32Mn3Cr13O48,96,P1,-2.2214879485464554,False
459,mp-777886,Li32Mn3Cr13O48,96,P1,-2.2204293337547885,False
460,mp-777959,Li32Mn3Cr13O48,96,P1,-2.220665979588121,False
461,mp-778190,Li32Mn3Cr13O48,96,P1,-2.2207664596922885,False
462,mp-778359,Li32Mn3Cr13O48,96,P1,-2.2210356281297887,False
463,mp-1177991,Li32Mn5Cr11O48,96,P1,-2.211491405795018,False
464,mp-777689,Li32Mn5Cr11O48,96,C2,-2.199448499232519,False
465,mp-778376,Li32Mn5Cr11O48,96,C2,-2.213096844440853,False
466,mp-781106,Li32Mn5Cr11O48,96,C2,-2.1970629114200193,False
467,mp-1222986,Li3Fe(MoO4)3,76,Pc,-2.084492966184211,False
468,mp-1173931,Li3Mn(CoO3)2,24,P-1,-1.8015441298275867,False
469,mp-1173934,Li3Mn(CoO3)2,24,P-1,-1.8284024169109199,False
470,mp-1272557,Li3Mn(CoO3)2,24,P-1,-1.8012525939942527,False
471,mp-1275547,Li3Mn(CoO3)2,24,P-1,-1.8011886548275864,False
472,mp-1301636,Li3Mn(CoO3)2,24,P-1,-1.814357027327586,False
473,mp-1302582,Li3Mn(CoO3)2,24,C2/m,-1.8020612360775867,False
474,mp-761633,Li3Mn(CoO3)2,24,C2/m,-1.802789791910919,False
475,mp-1173968,Li3Mn2CoO6,24,C2/m,-1.9738303584051728,False
476,mp-1275606,Li3Mn2CoO6,24,C2/m,-1.9974645321551723,False
477,mp-1275688,Li3Mn2CoO6,24,P-1,-1.973134501321839,False
478,mp-1280502,Li3Mn2CoO6,24,P-1,-1.9567409567385052,False
479,mp-1304514,Li3Mn2CoO6,24,P-1,-1.972902053405172,False
480,mp-1306526,Li3Mn2CoO6,24,C2/c,-1.9939935854885054,False
481,mp-1310833,Li3Mn2CoO6,24,P-1,-1.970437355905173,False
482,mp-752794,Li3Mn2CoO6,24,C2/m,-1.9727689934051724,False
483,mp-774897,Li3Mn2CrO6,24,C2/m,-2.2124542338218394,False
484,mp-1177633,Li3Mn3CoO8,30,Cmc2_1,-1.9178757269195406,False
485,mp-1299461,Li3Mn3CoO8,30,P-1,-1.9424573932528735,False
486,mp-1314393,Li3Mn3CoO8,30,P1,-1.9471142199195404,False
487,mp-774662,Li3Mn5Cr3O16,27,Cm,-2.1254725407279684,False
488,mp-1275723,Li3MnCo3O8,30,C2/m,-1.6900071238620693,False
489,mp-1280534,Li3MnCo3O8,30,P-1,-1.6767636128620693,False
490,mp-1282801,Li3MnCo3O8,30,C2,-1.680870811862069,False
491,mp-1291752,Li3MnCo3O8,30,C2/c,-1.692020250862069,False
492,mp-1306381,Li3MnCo3O8,30,P1,-1.6890033441954027,False
493,mp-1173955,Li3MnCoO5,20,P-1,-1.9518678175431035,False
494,mp-1173984,Li3MnCoO5,20,P-1,-1.9551117550431045,False
495,mp-1173998,Li3MnCoO5,20,P-1,-1.950448963043104,False
496,mp-1174020,Li3MnCoO5,20,P1,-1.9344033965431038,False
497,mp-1174022,Li3MnCoO5,20,P1,-1.9372403995431042,False
498,mp-1174029,Li3MnCoO5,20,C2/m,-1.9431822950431041,False
499,mp-1174046,Li3MnCoO5,20,C2,-1.9477080485431046,False
500,mp-757009,Li2Cr(CoO3)2,22,Cmce,-1.7692844287878784,False
501,mp-758963,Li2Cr2CoO6,22,C2/m,-2.051781651969696,False
502,mp-759210,Li2Cr2CoO6,33,P-1,-2.0288055346969704,False
503,mp-753037,Li2Cr3(CoO4)3,20,P-1,-1.7451067358333319,False
504,mp-772115,Li2Cr3(CoO6)2,76,Pbcn,-1.7551042304824562,False
505,mp-1178061,Li2Cr3CoO8,56,P1,-2.036107104404761,False
506,mp-756128,Li2Cr3CoO8,28,P1,-2.024600746904762,False
507,mp-759951,Li2Cr3CoO8,56,P4_332,-2.0194966188690477,False
508,mp-1178130,Li2CrCo3O8,56,R32,-1.6909897206547615,False
509,mp-1178263,Li2CrCo3O8,56,P1,-1.6587529002976191,False
510,mp-1302768,Li2CrCo3O8,28,C2/m,-1.6852098769047612,False
511,mp-752954,Li2CrCo3O8,28,C2/m,-1.6623149679761906,False
512,mp-757991,Li2CrCo3O8,56,P4_332,-1.6474633849404756,False
513,mp-762609,Li2CrCo3O8,56,C2,-1.6696827135119048,False
514,mp-765293,Li2CrCo3O8,28,P6_3mc,-1.669811413690476,False
515,mp-1222636,Li3Co2RuO6,24,C2/m,-1.7007179295833328,False
516,mp-1275904,Li3Cr(CoO3)2,24,P-1,-1.9064235887500007,False
517,mp-1277232,Li3Cr(CoO3)2,24,P1,-1.9061805670833334,False
518,mp-1279201,Li3Cr(CoO3)2,24,P1,-1.9042429875000007,False
519,mp-1279412,Li3Cr(CoO3)2,24,P-1,-1.9042219933333335,False
520,mp-1283691,Li3Cr(CoO3)2,24,P-1,-1.9059324745833333,False
521,mp-761831,Li3Cr(CoO3)2,24,C2/m,-1.8856144900000007,False
522,mp-765542,Li3Cr3(CoO6)2,80,P2_1/c,-1.7892565160000005,False
523,mp-756512,Li3Cr3CoO8,30,P-1,-2.124932683666667,False
524,mp-759061,Li3Cr3CoO8,30,R-3m,-2.1536520393333336,False
525,mp-759149,Li3CrCo3O8,30,C2/m,-1.7695352156666664,False
526,mp-753039,Li4Cr3(CoO4)3,22,P-1,-1.9295736560606058,False
527,mp-770878,Li4Cr3Co5O16,28,P1,-1.7152296738690478,False
528,mp-1303805,Li4Cr3CoO8,32,P2_1/c,-2.2130134048958334,False
529,mp-1305983,Li4Cr3CoO8,32,P-1,-2.222249299583333,False
530,mp-1308674,Li4Cr3CoO8,32,C2/c,-2.216362939583333,False
531,mp-1317623,Li4Cr3CoO8,32,C2/c,-2.2180270598958334,False
532,mp-755387,Li4Cr3CoO8,32,C2/m,-2.217373721145833,False
533,mp-756252,Li4Cr3CoO8,32,C2/m,-2.2198105277083338,False
534,mp-768691,Li4Cr3CoO8,32,P-1,-2.2284725470833333,False
535,mp-768718,Li4Cr3CoO8,32,P-1,-2.229092905520833,False
536,mp-768741,Li4Cr3CoO8,32,P-1,-2.2283854661458333,False
537,mp-768934,Li4Cr3CoO8,32,P-1,-2.2290614367708335,False
538,mp-768946,Li4Cr3CoO8,32,P-1,-2.2291979639583337,False
539,mp-771058,Li4Cr3CoO8,32,P-1,-2.227994026458333,False
540,mp-756547,Li4Cr5Co3O16,28,Cm,-1.9275457965476193,False
541,mp-771854,Li4Cr5Co3O16,28,P1,-1.9336573101190473,False
542,mp-771079,Li4CrCo5O12,22,C2/m,-1.6531300569696958,False
543,mp-765095,Li4Nb2Cr3Co3O16,28,Cm,-2.2418855361904755,False
544,mp-754733,Li4Ti2Cr3Co3O16,28,Cm,-2.239886216428571,False
545,mp-770505,Li4Ti3Cr2Co3O16,28,Cm,-2.3701538097619053,False
546,mp-756278,Li4Ti3Cr3(CoO8)2,28,Cm,-2.455137193690476,False
547,mp-769725,Li4Ti3Cr3(CoO8)2,28,P1,-2.4471434515476176,False
548,mp-1666930,Li5Cr2Co3O10,40,P1,-1.9180601415833336,False
549,mp-756240,Li5Cr2Co3O10,40,P-1,-1.9163835833333338,False
550,mp-772364,Li9Cr12Co7O48,76,P1,-1.7322579138157879,False
551,mp-773157,Li9Cr12Co7O48,76,P1,-1.731942402499999,False
552,mp-1305214,LiCr(CoO3)2,20,P1,-1.5876126938333328,False
553,mp-758629,LiCrCo3O8,26,R-3m,-1.505228466794872,False
554,mp-761047,Li10V3Cr5O16,34,P1,-2.248664021862744,False
555,mp-760983,Li10V5Cr3O16,34,Cm,-2.2879074727450974,False
556,mp-780616,Li2V2CrO6,33,C2/m,-2.41601259530303,False
557,mp-1177869,Li2V3CoO8,56,P2_13,-2.3275322026190475,False
558,mp-1291671,Li2V3CoO8,28,P1,-2.422762238333333,True
559,mp-757296,Li2V3CoO8,56,R3,-2.3240682472619048,False
560,mp-778232,Li2V3Cr2O12,76,Pbcn,-2.324623819166665,False
561,mp-1275513,Li2V3CrO8,28,C2/m,-2.484518892261904,False
562,mp-1277730,Li2V3CrO8,28,C2/c,-2.481274040833333,False
563,mp-1302892,Li2V3CrO8,28,C2/c,-2.4847451604761903,False
564,mp-769590,Li2V3CrO8,28,P-1,-2.4252877301190474,False
565,mp-773082,Li2V3CrO8,56,P2_1,-2.4780270922619048,False
566,mp-777666,Li2V3CrO8,28,Cc,-2.460014031190476,False
567,mp-782662,Li2V5Cr2O12,42,P2_1,-2.3896110267460307,False
568,mp-757835,Li2VCo3O8,28,P6_3mc,-1.7730718551190472,False
569,mp-1177804,Li2VCoO4,24,P1,-2.1421819025000004,False
570,mp-755830,Li2VCoO4,24,P-1,-2.1501503708333325,False
571,mp-756764,Li2VCr2O6,22,Cmce,-2.3636729101515157,False
572,mp-849313,Li2VCr2O6,33,C2/m,-2.387324509545454,False
573,mp-1177800,Li2VCr3O8,28,R-3m,-2.3847873679761897,False
574,mp-1177801,Li2VCr3O8,28,C2/m,-2.3188401711904754,False
575,mp-769577,Li2VCr3O8,28,P1,-2.318382099761903,False
576,mp-771964,Li2VCr3O8,28,P6_3mc,-2.3511884647619032,False
577,mp-769617,Li2VCrO4,24,P-1,-2.4288949199999994,False
578,mp-769620,Li2VCrO4,24,P1,-2.4370705775,False
579,mp-769635,Li2VCrO4,24,P-1,-2.4289866783333327,False
580,mp-860461,Li2VCrO4,24,P-1,-2.429552449166666,False
581,mp-757208,Li3V2CrO6,24,C2/m,-2.4619632054166662,False
582,mp-774919,Li3V3(CoO6)2,80,P2_1/c,-2.049615437874999,False
583,mp-849418,Li3V3Cr2O10,36,P-1,-2.378192096666666,False
584,mp-769596,Li3V3CrO8,30,P1,-2.4400849783333323,False
585,mp-754708,Li3V5Cr2O12,22,C2,-2.396326227272726,False
586,mp-754615,Li3VCr2O6,24,C2/m,-2.4333270629166663,False
587,mp-755839,Li3VCr3O8,30,R-3m,-2.392992079999999,False
588,mp-764983,Li3VCr3O8,30,R-3m,-2.393612376333332,False
589,mp-769583,Li3VCr3O8,30,P1,-2.392116436666666,False
590,mp-1177325,Li4Nb2V3Co3O16,28,P1,-2.3280841240476184,False
591,mp-770954,Li4Nb2V3Cr3O16,28,Cm,-2.6019258679761896,False
592,mp-772990,Li4Ti2V3Cr3O16,28,Cm,-2.65605466,False
593,mp-774596,Li4Ti2V3Cr4O18,62,Pbam,-2.568768917096773,False
594,mp-770621,Li4Ti3V2Co3O16,28,P1,-2.466645730476191,False
595,mp-780134,Li4Ti3V2Cr3O16,28,Cm,-2.7644041136904756,False
596,mp-774581,Li4Ti3V2Cr4O18,62,Pmc2_1,-2.6570436183333332,False
597,mp-777010,Li4Ti3V3(CoO8)2,28,P1,-2.6017286576190464,False
598,mp-772715,Li4Ti3V3Cr2O16,28,Cm,-2.776123981904761,False
599,mp-774678,Li4Ti3V4Cr2O18,62,Pmc2_1,-2.6846631391397855,False
600,mp-884288,Li4Ti4V4CrO18,62,Pbam,-2.7979623253763437,False
601,mp-774577,Li4Ti4VCr4O18,62,Pbam,-2.7602421194086006,False
602,mp-767927,Li4TiV4Cr4O18,62,Pmc2_1,-2.471774952795699,False
603,mp-758266,Li4V2Co3Cu3O16,28,Cm,-1.6347601572619044,False
604,mp-849340,Li4V3Cr3O12,22,P-1,-2.404754183333334,False
605,mp-775818,Li4V3Cr5O16,28,Cm,-2.3948786911904754,False
606,mp-769611,Li4V3CrO8,32,P-1,-2.4653079217708322,False
607,mp-769614,Li4V3CrO8,32,P-1,-2.4595756605208328,False
608,mp-769615,Li4V3CrO8,32,P-1,-2.459272211458332,False
609,mp-769628,Li4V3CrO8,32,P-1,-2.459185113645832,False
610,mp-861746,Li4V3CrO8,32,P-1,-2.447733604270833,False
611,mp-780707,Li4V5Cr2O12,46,P2_1,-2.3816229703623177,False
612,mp-1177207,Li4V5Cr3O16,28,P1,-2.4387674076190486,False
613,mp-777002,Li4V5Cr3O16,28,Cm,-2.4453634372619057,False
614,mp-1177172,Li4V5Cr4O18,62,Pbam,-2.3733364881720425,False
615,mp-769593,Li4VCr3O8,32,P-1,-2.4139460173958334,False
616,mp-769595,Li4VCr3O8,32,P-1,-2.417655715833333,False
617,mp-769605,Li4VCr3O8,32,P-1,-2.4176934570833337,False
618,mp-769608,Li4VCr3O8,32,P-1,-2.4132734936458338,False
619,mp-769609,Li4VCr3O8,32,P-1,-2.4178968420833336,False
620,mp-850338,Li4VCr3O8,32,R-3m,-2.4229425795833333,False
621,mp-756826,Li5V3Cr2O10,40,P-1,-2.421192095583333,False
622,mp-764013,Li5V3CrO8,34,Cc,-2.2901836506862736,False
623,mp-773065,Li5V5Cr2O12,24,C2,-2.3522593769444433,False
624,mp-760333,Li5VCr3O8,34,P6_3mc,-2.254073718627451,False
625,mp-772560,Li9V12Cr7O48,76,P1,-2.266544555526315,False
626,mp-772575,Li9V12Cr7O48,76,P1,-2.2678544221052626,False
627,mp-1191696,LiCr(MoO4)2,24,P-1,-2.1269589381944436,False
628,mp-1211202,LiCr2(MoO4)3,36,P-1,-2.0950934696296297,False
629,mp-1280737,LiV2CrO6,20,P1,-2.4130940598333326,False
630,mp-754522,LiVCoO4,28,Pnma,-2.0821785519047618,False
631,mp-757842,LiVCoO4,28,P4_322,-2.0923579126190472,False
632,mp-776068,LiVCrO4,21,P1,-2.3951652019047622,False
633,mp-771052,Li10Fe3Ni7O20,40,P2/m,-1.621164020083333,False
634,mp-769545,Li10FeNi9O20,40,P-1,-1.5298833513333328,False
635,mp-774319,Li10Ti2Fe3Ni3O16,34,P1,-2.1096567491176463,False
636,mp-780190,Li2Cr3(NiO6)2,76,Pbcn,-1.7328968802192988,False
637,mp-1178044,Li2Cr3NiO8,56,P4_3,-2.010807735297619,False
638,mp-772613,Li2Cr3NiO8,28,P6_3mc,-1.9973587811904767,False
639,mp-775440,Li2Cr3NiO8,56,P1,-2.0035793599404763,False
640,mp-756434,Li2Fe(NiO3)2,22,Cmce,-1.3910195901515152,False
641,mp-758983,Li2Fe(NiO3)2,33,P-1,-1.4360248719696962,False
642,mp-1178127,Li2Fe3NiO8,56,P2_1,-1.514888937261905,False
643,mp-774943,Li2Fe3NiO8,56,P1,-1.5102075026190473,False
644,mp-776112,Li2Fe3NiO8,56,P4_332,-1.5662192954761898,False
645,mp-783903,Li2Fe3NiO8,28,Cmc2_1,-1.5192520422619051,False
646,mp-752523,Li2FeNi3O8,28,C2/m,-1.3084685740476192,False
647,mp-772095,Li2FeNi3O8,28,P6_3mc,-1.2592185119047616,False
648,mp-772596,Li2FeNi3O8,28,Cmc2_1,-1.2893597940476187,False
649,mp-776318,Li2FeNi3O8,56,P1,-1.323607984583333,False
650,mp-1211383,Li2Ni2(MoO4)3,76,Pnma,-1.9357000869298238,False
651,mp-777896,Li2V3NiO8,28,P31c,-2.2876180840476183,False
652,mp-1177805,Li2V4CuNiO12,20,C2,-2.1001497848333335,False
653,mp-776323,Li2V5NiO12,20,C2,-2.2985246843333327,False
654,mp-1177769,Li2VNiO4,24,P-1,-2.139489300833333,False
655,mp-772885,Li3Cr3(NiO6)2,80,P2_1/c,-1.7686618131250007,False
656,mp-756615,Li3Cr3NiO8,30,R-3m,-2.0878721933333337,False
657,mp-768676,Li3Cr3NiO8,60,P2/m,-2.076828582500001,False
658,mp-757287,Li3Fe(Ni2O5)2,36,P2/m,-1.3026161355555554,False
659,mp-759182,Li3Fe2Ni5O12,66,P1,-1.3614723578787873,False
660,mp-753185,Li3Fe5(NiO6)2,22,C2,-1.6037977649999993,False
661,mp-761063,Li3FeNi3O8,30,P6_3mc,-1.4296123919999995,False
662,mp-756454,Li3V4NiO12,20,P1,-2.230586991,False
663,mp-780469,Li4Cr2Ni5O12,46,P2_1,-1.652394907101449,False
664,mp-1290930,Li4Cr3NiO8,32,C2/m,-2.182600146145834,False
665,mp-1311864,Li4Cr3NiO8,32,P-1,-2.181970428645834,False
666,mp-1317583,Li4Cr3NiO8,32,P-1,-2.143005120520834,False
667,mp-753765,Li4Cr3NiO8,32,P-1,-2.1779852152083334,False
668,mp-756061,Li4Cr3NiO8,32,P-1,-2.177217668333334,False
669,mp-768700,Li4Cr3NiO8,32,P-1,-2.1752992342708337,False
670,mp-768717,Li4Cr3NiO8,32,P-1,-2.1770627655208337,False
671,mp-768769,Li4Cr3NiO8,32,P-1,-2.176659773020834,False
672,mp-758641,Li4Fe2Ni5O12,46,P2_1,-1.4780193042753613,False
673,mp-1177431,Li4Fe3(NiO4)3,22,F222,-1.4689197769696962,False
674,mp-758854,Li4Fe3(NiO4)3,22,P-1,-1.5056293542424235,False
675,mp-758177,Li4Fe5(NiO6)2,46,P2_1,-1.7014536394927529,False
676,mp-1177537,Li4Fe5NiO12,22,C2/m,-1.637339878787879,False